37
Lattice="8.530808755166998 -2.5386237190646034e-15 -3.9793378221843725e-15 4.2654043775835015 7.387897096801325 -2.397330953518344e-16 0.0 0.0 22.28977243571786" Properties=species:S:1:pos:R:3:tags:I:1:initial_magmoms:R:1:forces:R:3 stress="0.0011604061955119063 2.8085991101183043e-06 3.5001853588006147e-06 2.8085991101183043e-06 0.0011571631046073966 2.020832959196916e-06 3.5001853588006147e-06 2.020832959196916e-06 -0.0018046272238829153" energy=-133.09845554465568 pbc="T T T"
Au       0.00000000       0.00000000       0.00000000        0       0.00000000      -0.00231596      -0.00133712      -0.15572812
Au       2.84360292       0.00000000       0.00000000        0       0.00000000       0.00231983      -0.00134326      -0.15570270
Au       5.68720584       0.00000000       0.00000000        0       0.00000000      -0.00000069      -0.00291661      -0.17306895
Au       1.42180146       2.46263237       0.00000000        0       0.00000000      -0.00000339       0.00268066      -0.15570270
Au       4.26540438       2.46263237       0.00000000        0       0.00000000       0.00084129       0.00048572      -0.16020106
Au       7.10900730       2.46263237       0.00000000        0       0.00000000      -0.00084309       0.00047675      -0.16021612
Au       2.84360292       4.92526473       0.00000000        0       0.00000000      -0.00252620       0.00145771      -0.17306895
Au       5.68720584       4.92526473       0.00000000        0       0.00000000      -0.00000867      -0.00096851      -0.16021612
Au       8.53080876       4.92526473       0.00000000        0       0.00000000       0.00253186       0.00146177      -0.17304887
Au       1.42180146       0.82087746       2.43012302        1       0.00000000       0.00008889       0.00005132       0.30213336
Au       4.26540438       0.82087746       2.43012302        1       0.00000000      -0.05926485      -0.01319700       0.16931671
Au       7.10900730       0.82087746       2.43012302        1       0.00000000       0.05915919      -0.01293641       0.16901042
Au       2.84360292       3.28350982       2.43012302        1       0.00000000      -0.04106136      -0.04472637       0.16931671
Au       5.68720584       3.28350982       2.43012302        1       0.00000000      -0.00010516      -0.00006071       0.05455000
Au       8.53080876       3.28350982       2.43012302        1       0.00000000       0.04115705      -0.04471794       0.16932331
Au       4.26540438       5.74614219       2.43012302        1       0.00000000       0.01837634       0.05770156       0.16901042
Au       7.10900730       5.74614219       2.43012302        1       0.00000000      -0.01814835       0.05800202       0.16932331
Au       9.95261021       5.74614219       2.43012302        1       0.00000000      -0.00020400      -0.00011778       0.23063231
Au       0.01385276       1.63379885       4.90725022        2       0.00000000      -0.00432653       0.00269352      -0.02621063
Au       2.82975156       1.63375782       4.90729761        2       0.00000000       0.00425546       0.00245689      -0.02710474
Au       5.68719244       1.64169025       4.82634169        2       0.00000000       0.00036333      -0.00718716       0.00675937
Au       1.42187861       4.08942175       4.85810122        2       0.00000000       0.00002751      -0.04867581       0.04379038
Au       4.26534168       4.10440801       4.82634169        2       0.00000000      -0.00604260       0.00390823       0.00675937
Au       7.10906661       4.10442152       4.82623497        2       0.00000000       0.00645062       0.00372426       0.00682878
Au       2.85667007       6.57456396       4.85784462        2       0.00000000       0.04210384       0.02430866       0.04543627
Au       5.68724206       6.58299451       4.90725022        2       0.00000000       0.00016940      -0.00509364      -0.02621063
Au       8.51788680       6.57456922       4.85810122        2       0.00000000      -0.04214074       0.02436173       0.04379038
Au      -0.14234977      -0.08218568       7.48816417        3       0.00000000       0.07852137       0.04533433       0.00173292
Au       2.98782515      -0.08255396       7.48833244        3       0.00000000      -0.08438346       0.04582443       0.00264485
Au       5.68773006       0.00672642       7.28248933        3       0.00000000       0.00375966      -0.04042398      -0.04977188
Au       1.42241875       2.62880946       7.48833244        3       0.00000000      -0.00250661      -0.09599044       0.00264485
Au       4.26980527       2.46517322       7.30118799        3       0.00000000       0.05307343       0.03064196       0.00249082
Au       7.10474361       2.46549054       7.30132767        3       0.00000000      -0.04969687       0.02831737       0.00197738
Au       2.84969028       4.92235551       7.28248933        3       0.00000000      -0.03312836       0.02346796      -0.04977188
Au       5.68754925       4.92014318       7.30132767        3       0.00000000      -0.00032488      -0.05719744       0.00197738
Au       8.52549334       4.92219587       7.28208339        3       0.00000000       0.03470905       0.02003928      -0.04873533
O        1.42292219       0.82152451       8.59341328        0       0.00000000      -0.00087631      -0.00050594      -0.07469061
