22
Lattice="27.84 0.0 0.0 0.0 27.84 0.0 0.0 0.0 27.84" Properties=species:S:1:pos:R:3:initial_magmoms:R:1:forces:R:3 stress="1.1762396655696299e-05 -1.6750423818231182e-05 -1.1842480825270317e-06 -1.6750423818231182e-05 -3.0111764852290616e-06 -1.5436763613518433e-06 -1.1842480825270317e-06 -1.5436763613518433e-06 -1.3743683483336843e-05" energy=-106.40237519236369 pbc="T T T"
Pt      11.88162315      11.87490065      13.98280066       0.00000000      -0.04554046       0.01251949      -0.04589674
Pt      11.95984307      13.90311249      12.00671044       0.00000000       0.00258043      -0.00858037       0.00868800
Pt      10.23103384      13.95947983      13.93134139       0.00000000      -0.00499577       0.00271461       0.01717240
Pt      11.96099019      13.87577537      15.85513781       0.00000000       0.01083706       0.00182823       0.00041871
Pt      11.97431651      15.84407403      13.93132499       0.00000000       0.02183271      -0.01246752       0.00391365
Pt      13.86639839      11.94182842      12.02449777       0.00000000       0.00196221       0.01520715      -0.00730701
Pt      13.91706812      10.19629089      13.93540395       0.00000000      -0.05720245       0.02374196       0.00410905
Pt      13.88808784      11.93898656      15.84655161       0.00000000      -0.05010735       0.02388335      -0.00290282
Pt      15.83128654      11.94924617      13.92892319       0.00000000      -0.03028118       0.00734206       0.00656582
Pt      13.87852402      13.84945434      10.27575780       0.00000000      -0.02065157       0.00756766      -0.01562869
Pt      13.88821026      15.78917043      12.02272900       0.00000000       0.01283816       0.00154198      -0.01190314
Pt      15.78852397      13.85759136      12.03263131       0.00000000       0.00762701       0.00938327      -0.02766159
Pt      13.83206084      13.82810353      13.93103811       0.00000000       0.02593087       0.02023931      -0.00229129
Pt      13.88223328      15.78957739      15.83262237       0.00000000       0.02012938       0.00583358       0.01636631
Pt      15.79670341      13.86855218      15.82268891       0.00000000       0.00339088      -0.00245056       0.02418737
Pt      15.79504239      15.78823329      13.92308425       0.00000000       0.02090782      -0.00074571       0.00377667
Pt      13.88633802      13.86260705      17.58866070       0.00000000      -0.00462922       0.00900087       0.01976390
Pt      13.90212635      17.57235263      13.92700513       0.00000000       0.02716859      -0.01119402       0.00027487
Pt      17.57303967      13.88679288      13.92222037       0.00000000      -0.01313061      -0.01104585       0.00155042
O       10.34781121      10.83566360      13.31780019       0.00000000      -0.01953899      -0.03986969      -0.02126388
O        9.96224672       9.88129007      14.30834619       0.00000000       0.03711013      -0.08134789      -0.01997781
H       10.72249808       9.26092613      14.33717901       0.00000000       0.05376233       0.02689808       0.04804581
