22
Lattice="27.84 0.0 0.0 0.0 27.84 0.0 0.0 0.0 27.84" Properties=species:S:1:pos:R:3:initial_magmoms:R:1:forces:R:3 stress="-1.4744046569888455e-06 6.650868568406464e-06 -1.416649218315321e-06 6.650868568406464e-06 1.3826845001194409e-05 8.2316375512369e-08 -1.416649218315321e-06 8.2316375512369e-08 8.492766667694146e-07" energy=-107.65331729080748 pbc="T T T"
Pt      12.02071179      11.92503553      14.07033333       0.00000000       0.00292243       0.00199342      -0.00133574
Pt      12.25639309      14.13112449      11.81420650       0.00000000      -0.02341366       0.00455851      -0.01770158
Pt      10.46493950      13.95343964      13.68438509       0.00000000      -0.01154902       0.01531650       0.01717347
Pt      12.01975162      13.93786657      15.77637820       0.00000000       0.00654545      -0.01794596       0.00812584
Pt      12.11059142      15.91764920      13.85723816       0.00000000       0.00266075      -0.01540534      -0.01841241
Pt      14.21386553      12.22995841      11.82544120       0.00000000       0.02077494      -0.01863951      -0.01106156
Pt      14.11259964      10.43749282      13.71339928       0.00000000       0.02280994      -0.00946267       0.01457756
Pt      14.01962670      12.01067783      15.79470383       0.00000000      -0.01570859       0.00527054      -0.00022445
Pt      15.99959823      12.15587307      13.87561841       0.00000000      -0.00075038       0.00635705      -0.01150106
Pt      14.41703036      14.39376018      10.25860477       0.00000000       0.00380911      -0.00495924      -0.00935361
Pt      14.14836074      16.08037554      12.16883654       0.00000000      -0.01274324      -0.01958935      -0.00466384
Pt      16.10087545      14.18781885      12.17736327       0.00000000      -0.00686967      -0.00497603      -0.00077020
Pt      13.98132794      13.96061424      13.93209338       0.00000000      -0.01164310      -0.01340278      -0.00519647
Pt      13.89242044      15.83924747      15.92871757       0.00000000      -0.01081422       0.00196427       0.00994914
Pt      15.85062090      13.94486154      15.94242969       0.00000000       0.00729857      -0.00475533       0.00567707
Pt      15.92798824      15.97202214      14.17900180       0.00000000       0.00860934       0.01143021      -0.00602475
Pt      13.85519482      13.85661823      17.61319863       0.00000000       0.02272680       0.01249750       0.00235434
Pt      13.97673126      17.72346229      14.14951954       0.00000000      -0.00713630      -0.02459399       0.00533350
Pt      17.73859049      14.07598705      14.16802341       0.00000000      -0.01108846       0.00798831       0.00780819
O       12.48215840      12.40126133      10.89726427       0.00000000       0.02843638       0.01426029       0.04706490
O       10.88539599      10.59439642      13.20588231       0.00000000       0.01055410       0.02298703      -0.08856183
H       11.14445393      10.57805074      12.25898838       0.00000000      -0.02543118       0.02910659       0.05674350
