3
Lattice="15.0 0.0 0.0 0.0 15.0 0.0 0.0 0.0 15.0" Properties=species:S:1:pos:R:3:initial_magmoms:R:1:forces:R:3 stress="6.599561993372466e-07 4.6259403849669046e-20 -8.403803630352013e-18 4.6259403849669046e-20 4.539644301754871e-09 6.171113633577266e-20 -8.403803630352013e-18 6.171113633577266e-20 3.2243395713574007e-06" energy=-14.196630289850354 pbc="T T T"
O        7.50000000       7.50000000       7.19674722       0.00000000      -0.00000000      -0.00000000       0.01805425
H        8.26585148       7.50000000       7.79862639       0.00000000      -0.00144323      -0.00000000      -0.00902713
H        6.73414852       7.50000000       7.79862639       0.00000000       0.00144323      -0.00000000      -0.00902713
