38
Lattice="8.12023694367038 -2.502811802376711e-15 -3.0154273300879247e-16 4.060118471835193 7.032331477967455 9.12873696737661e-17 0.0 0.0 21.94967493036051" Properties=species:S:1:pos:R:3:tags:I:1:initial_magmoms:R:1:forces:R:3 stress="-0.0006166196538566135 -2.623192136003197e-05 -8.8356775484042e-05 -2.623192136003197e-05 -0.0005863296401395733 -5.101280811029151e-05 -8.8356775484042e-05 -5.101280811029151e-05 -0.002431000153961669" energy=-239.6761661473821 pbc="T T T"
Pt       0.00000000       0.00000000       0.00000000        0       0.00000000      -0.00311599      -0.00179902      -0.20922759
Pt       2.70674565       0.00000000       0.00000000        0       0.00000000       0.00323507      -0.00174282      -0.20880773
Pt       5.41349130       0.00000000       0.00000000        0       0.00000000      -0.00022618       0.00219225      -0.22270278
Pt       1.35337282       2.34411049       0.00000000        0       0.00000000       0.00010821       0.00367306      -0.20880773
Pt       4.06011847       2.34411049       0.00000000        0       0.00000000       0.00276323       0.00159535      -0.21729857
Pt       6.76686412       2.34411049       0.00000000        0       0.00000000      -0.00275795       0.00112242      -0.21732539
Pt       2.70674565       4.68822099       0.00000000        0       0.00000000       0.00178545      -0.00129201      -0.22270278
Pt       5.41349130       4.68822099       0.00000000        0       0.00000000      -0.00040693      -0.00294967      -0.21732539
Pt       8.12023694       4.68822099       0.00000000        0       0.00000000      -0.00109291      -0.00063099      -0.22009511
Pt       1.35337282       0.78137016       2.31293021        1       0.00000000       0.00250752       0.00144772       0.19681022
Pt       4.06011847       0.78137016       2.31293021        1       0.00000000       0.01343328      -0.08705302       0.24345523
Pt       6.76686412       0.78137016       2.31293021        1       0.00000000      -0.01741615      -0.08186181       0.23318914
Pt       2.70674565       3.12548066       2.31293021        1       0.00000000      -0.06867349       0.05516008       0.24345523
Pt       5.41349130       3.12548066       2.31293021        1       0.00000000      -0.00152063      -0.00087793       0.15522233
Pt       8.12023694       3.12548066       2.31293021        1       0.00000000       0.06969470       0.05406827       0.24132561
Pt       4.06011847       5.46959115       2.31293021        1       0.00000000      -0.07960248       0.02584808       0.23318914
Pt       6.76686412       5.46959115       2.31293021        1       0.00000000       0.08167185       0.03332324       0.24132561
Pt       9.47360977       5.46959115       2.31293021        1       0.00000000      -0.00381968      -0.00220529       0.47194018
Pt       0.00140510       1.56234390       4.59655323        2       0.00000000      -0.00661723       0.00319373      -0.02928675
Pt       2.70499002       1.56172672       4.59767426        2       0.00000000       0.00623272       0.00359846      -0.02552427
Pt       5.41315136       1.56244400       4.58732935        2       0.00000000      -0.00057697       0.00518987       0.01547131
Pt       1.35306246       3.89681307       4.62778377        2       0.00000000      -0.00064241      -0.00175293      -0.01611435
Pt       4.05969187       3.90670460       4.58732935        2       0.00000000       0.00420608      -0.00309461       0.01547131
Pt       6.76684838       3.90684173       4.58672238        2       0.00000000      -0.00525103      -0.00303168       0.01465696
Pt       2.71272079       6.25441106       4.62315550        2       0.00000000      -0.00330888      -0.00191038      -0.02332230
Pt       5.41385053       6.25237638       4.59655323        2       0.00000000      -0.00054276      -0.00732755      -0.02928675
Pt       8.11138882       6.25571141       4.62778377        2       0.00000000      -0.00183929       0.00032012      -0.01611435
Pt      -0.04890721      -0.02823659       6.95682387        3       0.00000000      -0.00101712      -0.00058723      -0.07755746
Pt       2.75386542      -0.02706992       6.97498904        3       0.00000000      -0.00290222      -0.00148892      -0.06342721
Pt       5.41356303       0.00816383       6.95610551        3       0.00000000      -0.00059398      -0.00607254      -0.01971845
Pt       1.35348947       2.39845237       6.97498904        3       0.00000000      -0.00274056      -0.00176894      -0.06342721
Pt       4.06850184       2.34895063       6.92656347        3       0.00000000       0.00002516       0.00001453       0.01700003
Pt       6.75934090       2.34897390       6.92620995        3       0.00000000      -0.00538516      -0.00092194       0.01443205
Pt       2.71385160       4.68420119       6.95610551        3       0.00000000      -0.00555597       0.00252187      -0.01971845
Pt       5.41394152       4.67927398       6.92620995        3       0.00000000      -0.00349100      -0.00420272       0.01443205
Pt       8.11422520       4.68475010       6.95584466        3       0.00000000      -0.00034568      -0.00019958      -0.02118694
O        1.36058798       0.78553583       8.51247642        0       0.00000000       0.00992472       0.00573004       0.08913581
H        1.39134106       0.80329114       9.48566694        0       0.00000000       0.02385466       0.01377250      -0.09153461
