39
Lattice="7.31716277299497 -1.5312158836541236e-14 3.502625384595088e-15 3.6585813864974996 6.336848845039428 1.6265961235805369e-15 0.0 0.0 21.04428422323305" Properties=species:S:1:pos:R:3:tags:I:1:initial_magmoms:R:1:forces:R:3 stress="0.0007012405187600997 -2.5692542263839664e-05 -0.00040854533259032026 -2.5692542263839664e-05 -0.0005254127224383082 0.0016672020759113794 -0.00040854533259032026 0.0016672020759113794 -0.00020483880437962253" energy=-214.46211102220195 pbc="T T T"
Ni       0.00000000      -0.00000000       0.00000000        0       1.00000000       0.00021730       0.00028892      -0.02967533
Ni       2.43905426      -0.00000000       0.00000000        0       1.00000000       0.00022643       0.00047667      -0.02902348
Ni       4.87810852      -0.00000000       0.00000000        0       1.00000000      -0.00095650      -0.00038950      -0.01405804
Ni       1.21952713       2.11228295       0.00000000        0       1.00000000       0.00010364       0.00074178      -0.02934670
Ni       3.65858139       2.11228295       0.00000000        0       1.00000000       0.00072438       0.00107022      -0.02636834
Ni       6.09763564       2.11228295       0.00000000        0       1.00000000      -0.00147440       0.00190056      -0.02757992
Ni       2.43905426       4.22456590       0.00000000        0       1.00000000      -0.00146147       0.00226252      -0.01097616
Ni       4.87810852       4.22456590       0.00000000        0       1.00000000       0.00015233       0.00045399      -0.02622367
Ni       7.31716277       4.22456590       0.00000000        0       1.00000000       0.00044026       0.00256947      -0.01306117
Ni       1.21952713       0.70409432       2.01167273        1       1.00000000       0.00231217       0.00969997       0.06613493
Ni       3.65858139       0.70409432       2.01167273        1       1.00000000      -0.01219375      -0.01034997       0.02552655
Ni       6.09763564       0.70409432       2.01167273        1       1.00000000      -0.00169930      -0.00576133       0.01014777
Ni       2.43905426       2.81637726       2.01167273        1       1.00000000      -0.02010151       0.02092306       0.02137024
Ni       4.87810852       2.81637726       2.01167273        1       1.00000000      -0.00393132       0.02793826      -0.02879339
Ni       7.31716277       2.81637726       2.01167273        1       1.00000000       0.01022197       0.03273492       0.00990985
Ni       3.65858139       4.92866021       2.01167273        1       1.00000000      -0.01364692       0.04145202       0.03153304
Ni       6.09763564       4.92866021       2.01167273        1       1.00000000       0.01350435       0.04324177       0.03916643
Ni       8.53668990       4.92866021       2.01167273        1       1.00000000      -0.01872817       0.04447076       0.02773253
Ni      -0.00179098       1.42453302       4.03160288        2       1.00000000      -0.00090816      -0.00082958       0.00532903
Ni       2.43323855       1.42322505       4.03838950        2       1.00000000      -0.00050207      -0.00059529       0.00433530
Ni       4.87393778       1.42401156       4.02913094        2       1.00000000      -0.00087588      -0.00040840      -0.00080195
Ni       1.21471640       3.53480720       4.04324834        2       1.00000000      -0.00108267      -0.00105908       0.00144457
Ni       3.65438806       3.53964256       4.03204980        2       1.00000000      -0.00112844       0.00086694       0.00018690
Ni       6.09454764       3.53970082       4.03249022        2       1.00000000      -0.00109842       0.00062072       0.00033289
Ni       2.44257727       5.65585102       4.04975873        2       1.00000000      -0.00199190      -0.00113877       0.00149244
Ni       4.87517927       5.65294150       4.04418483        2       1.00000000      -0.00082589       0.00114675       0.00452631
Ni       7.30062257       5.65805457       4.05789246        2       1.00000000       0.00045764      -0.00123616       0.00039135
Ni      -0.04581779       0.01616626       6.14067441        3       1.00000000      -0.00355800      -0.00193751       0.00535811
Ni       2.45628053       0.02237970       6.18976840        3       1.00000000       0.00291523      -0.00392299      -0.00105961
Ni       4.86483486       0.03127858       6.03669775        3       1.00000000      -0.00072938      -0.00102359       0.00331907
Ni       1.20998476       2.20015707       6.11391439        3       1.00000000      -0.00140017       0.00397163       0.00530074
Ni       3.67286319       2.15556458       6.03110533        3       1.00000000      -0.00058503      -0.00079978       0.00022449
Ni       6.06937017       2.15588590       6.02977826        3       1.00000000      -0.00296253      -0.00033026      -0.00008787
Ni       2.43289664       4.26231220       6.03409841        3       1.00000000      -0.00018766      -0.00077473       0.00448418
Ni       4.87180209       4.23681361       6.03771078        3       1.00000000      -0.00111816      -0.00069363       0.00309776
Ni       7.30590466       4.26597925       6.03942148        3       1.00000000      -0.00120960      -0.00090673       0.00317667
O        1.17128758       0.79434245       7.23369714        0       0.00000000       0.00455347      -0.00300854      -0.00303381
O        1.71885672      -0.76817213       9.17136053        0       0.00000000       0.05493356      -0.08001016      -0.01286822
H        1.86599052      -0.59674166      10.13073792        0       0.00000000       0.00359457      -0.12165494      -0.02156347
