39
Lattice="7.4846239402392785 2.4779678226937893e-34 0.0 3.742311970119648 6.481874470020422 0.0 0.0 0.0 20.98755986535968" Properties=species:S:1:pos:R:3:tags:I:1:initial_magmoms:R:1:forces:R:3 energy=-200.71494123930702 free_energy=-200.71494123930702 stress="0.009721854423187305 -0.0001388082728269613 -0.0003844634053685353 -0.0001388082728269613 0.008530533934162077 0.0019936298303638578 -0.0003844634053685353 0.0019936298303638578 -0.012570001910919188" pbc="T T T"
Ni       0.00000000      -0.00000000       0.10000000        0       1.00000000      -0.00132465       0.00105910      -0.27179764
Ni       2.49487465      -0.00000000       0.10000000        0       1.00000000       0.00154311      -0.00092054      -0.27442198
Ni       4.98974929       0.00000000       0.10000000        0       1.00000000      -0.00094069       0.00416653      -0.25248282
Ni       1.24743732       2.16062482       0.10000000        0       1.00000000      -0.00139129       0.00055285      -0.26793761
Ni       3.74231197       2.16062482       0.10000000        0       1.00000000       0.00435046       0.00291006      -0.26778936
Ni       6.23718662       2.16062482       0.10000000        0       1.00000000      -0.00317848       0.00229789      -0.26349804
Ni       2.49487465       4.32124965       0.10000000        0       1.00000000       0.00069697       0.00139389      -0.25551463
Ni       4.98974929       4.32124965       0.10000000        0       1.00000000       0.00034783      -0.00329568      -0.26694971
Ni       7.48462394       4.32124965       0.10000000        0       1.00000000      -0.00234877       0.00077658      -0.25068315
Ni       1.24743732       0.72020827       2.05723380        1       1.00000000      -0.02097938       0.00911053       0.04196163
Ni       3.74231197       0.72020827       2.05723380        1       1.00000000       0.02629744       0.01139143       0.02458032
Ni       6.23718662       0.72020827       2.05723380        1       1.00000000      -0.01343906       0.01365472       0.06952241
Ni       2.49487465       2.88083310       2.05723380        1       1.00000000       0.00638730       0.08577848       0.00942724
Ni       4.98974929       2.88083310       2.05723380        1       1.00000000       0.00653132       0.00526759       0.08990681
Ni       7.48462394       2.88083310       2.05723380        1       1.00000000      -0.01824135       0.02788385       0.08748961
Ni       3.74231197       5.04145792       2.05723380        1       1.00000000      -0.04965743      -0.02007930       0.00954733
Ni       6.23718662       5.04145792       2.05723380        1       1.00000000       0.02923446      -0.03020683       0.03651297
Ni       8.73206126       5.04145792       2.05723380        1       1.00000000       0.00404461       0.04668648       0.01788306
Ni      -0.00105318       1.45234329       4.05533806        2       1.00000000      -0.01178839       0.00337833       0.02483669
Ni       2.49244302       1.47272963       4.02801214        2       1.00000000       0.00302793      -0.06662778       0.16729180
Ni       4.98858999       1.44561145       4.06497346        2       1.00000000       0.00918877       0.04799722      -0.00764373
Ni       1.24294278       3.61346659       4.05533188        2       1.00000000       0.00479538       0.08284068      -0.00503388
Ni       3.75110305       3.60996537       4.06757302        2       1.00000000      -0.04209376       0.04942313       0.04143044
Ni       6.22958584       3.60562189       4.07262897        2       1.00000000       0.00747857       0.04209075       0.02645403
Ni       2.51052783       5.78222910       4.06349958        2       1.00000000      -0.08255789      -0.02373926       0.00725088
Ni       4.98207436       5.75125241       4.03075504        2       1.00000000       0.02550635       0.08489097       0.24782715
Ni       7.46515273       5.78480895       4.05718862        2       1.00000000       0.04880397      -0.00602172      -0.01483888
Ni      -0.03005815       0.01198778       6.09912622        3       1.00000000      -0.39088221      -0.15023151       0.01627754
Ni       2.49064931       0.04658385       6.04995303        3       1.00000000       0.35495318      -0.19076308       0.19457836
Ni       4.97571029       0.01583731       6.00725025        3       1.00000000       0.04995721       0.06995011       0.22386478
Ni       1.23695672       2.27531182       6.06536020        3       1.00000000      -0.00260653       0.19172308       0.15177149
Ni       3.75923489       2.19506271       6.03209673        3       1.00000000       0.05703753       0.06510806       0.03345893
Ni       6.21517532       2.19271630       6.04219080        3       1.00000000      -0.09160739       0.07042962       0.01985331
Ni       2.48965222       4.36271829       6.01050060        3       1.00000000       0.01826156       0.00600853       0.16896514
Ni       4.98848661       4.34005665       6.08320178        3       1.00000000      -0.01273632      -0.09300001      -0.04682497
Ni       7.47529628       4.38413094       6.00739570        3       1.00000000      -0.01663188      -0.10108362       0.19778212
O        1.23581863       0.80397512       7.12360006        0       1.00000000       0.02403803       0.17297745       0.12795129
O        1.24690941      -0.27102859       8.81794820        0       1.00000000      -0.38269858      -0.25026860       0.08104591
H        2.21597061      -0.37435645       8.73287847        0       1.00000000       0.46262208      -0.16350997       0.32794517
