39
Lattice="7.31716277299497 -1.5312158836541236e-14 3.502625384595088e-15 3.6585813864974996 6.336848845039428 1.6265961235805369e-15 0.0 0.0 21.04428422323305" Properties=species:S:1:pos:R:3:tags:I:1:initial_magmoms:R:1:forces:R:3 stress="0.002019290590962071 -3.305400727703701e-05 -7.893941200153678e-05 -3.305400727703701e-05 0.0023224030605719353 -0.0004084929262880615 -7.893941200153678e-05 -0.0004084929262880615 0.0014149224312934123" energy=-213.44417601778005 pbc="T T T"
Ni       0.00000000      -0.00000000       0.00000000        0       1.00000000       0.00020228      -0.00100908      -0.02358509
Ni       2.43905426      -0.00000000       0.00000000        0       1.00000000      -0.00234086      -0.00177733      -0.02267923
Ni       4.87810852      -0.00000000       0.00000000        0       1.00000000       0.00178929      -0.00164091      -0.02268482
Ni       1.21952713       2.11228295       0.00000000        0       1.00000000      -0.00115836      -0.00201960      -0.02132670
Ni       3.65858139       2.11228295       0.00000000        0       1.00000000      -0.00004818      -0.00018712      -0.02450147
Ni       6.09763564       2.11228295       0.00000000        0       1.00000000       0.00101829      -0.00184855      -0.02174699
Ni       2.43905426       4.22456590       0.00000000        0       1.00000000       0.00033034       0.00133893      -0.02100873
Ni       4.87810852       4.22456590       0.00000000        0       1.00000000      -0.00041795       0.00160313      -0.02163655
Ni       7.31716277       4.22456590       0.00000000        0       1.00000000      -0.00029522       0.00014409      -0.00943061
Ni       1.21952713       0.70409432       2.01167273        1       1.00000000      -0.02948792      -0.03112894       0.09615926
Ni       3.65858139       0.70409432       2.01167273        1       1.00000000      -0.00150633      -0.01363303       0.00633421
Ni       6.09763564       0.70409432       2.01167273        1       1.00000000       0.02612332      -0.02828797       0.09535318
Ni       2.43905426       2.81637726       2.01167273        1       1.00000000      -0.00071193      -0.01577830       0.00835085
Ni       4.87810852       2.81637726       2.01167273        1       1.00000000      -0.00026855      -0.01341457       0.01049028
Ni       7.31716277       2.81637726       2.01167273        1       1.00000000      -0.00377332      -0.03499557       0.05581085
Ni       3.65858139       4.92866021       2.01167273        1       1.00000000       0.00042670       0.02158962       0.10533543
Ni       6.09763564       4.92866021       2.01167273        1       1.00000000      -0.03521871       0.00919325       0.06503395
Ni       8.53668990       4.92866021       2.01167273        1       1.00000000       0.03190905       0.01309046       0.06222443
Ni      -0.00126571       1.39120512       4.06316179        2       1.00000000       0.00024338      -0.00320963       0.00761708
Ni       2.43663043       1.39475684       4.03765474        2       1.00000000       0.00184483       0.01328560      -0.00375585
Ni       4.87781346       1.39555118       4.03792998        2       1.00000000      -0.00192025       0.01290180      -0.00227423
Ni       1.21948700       3.51285359       4.03471648        2       1.00000000      -0.00780858      -0.00153743      -0.00791782
Ni       3.65715451       3.51033936       4.03856518        2       1.00000000       0.00044969       0.01206254      -0.00103804
Ni       6.09512163       3.51234240       4.03732365        2       1.00000000       0.00850753      -0.00087126      -0.01067238
Ni       2.45165589       5.63179303       4.07100224        2       1.00000000      -0.00525297       0.00058688      -0.01241345
Ni       4.86489755       5.63063541       4.07140581        2       1.00000000       0.00325367       0.00113475      -0.00957746
Ni       7.31550169       5.62222937       4.03699421        2       1.00000000      -0.00114406       0.00579598      -0.00407698
Ni       0.00021558      -0.01534244       6.24303363        3       1.00000000      -0.00187096      -0.03828380      -0.02485377
Ni       2.44694589      -0.02067744       6.05829525        3       1.00000000      -0.00366631       0.03018523      -0.01814301
Ni       4.86228788      -0.02022140       6.05042720        3       1.00000000      -0.00061836       0.02901394      -0.01905365
Ni       1.23315863       2.11248541       6.04658483        3       1.00000000      -0.02016221      -0.01177881       0.00834402
Ni       3.65821364       2.09074506       6.04575412        3       1.00000000       0.00056477       0.02493362       0.00106762
Ni       6.08302903       2.10987492       6.05258039        3       1.00000000       0.01957465      -0.00816358       0.00477708
Ni       2.43738679       4.19793831       6.05155146        3       1.00000000      -0.02622228      -0.01372197      -0.02059202
Ni       4.87633399       4.19825071       6.05530138        3       1.00000000       0.02610697      -0.01047389      -0.01806290
Ni       7.31506916       4.20281534       6.04886104        3       1.00000000       0.00081021       0.02979588       0.00295922
O        0.09382464       0.37807428       8.00121774        0       0.00000000       0.01857397       0.01071612      -0.05825666
O        0.00668975      -0.83540025       8.84198199        0       0.00000000       0.05067288      -0.00391133      -0.08279062
H        0.83945879      -0.73121259       9.35309968        0       0.00000000      -0.04850850       0.02030084      -0.04777842
