39
Lattice="7.31716277299497 -1.5312158836541236e-14 3.502625384595088e-15 3.6585813864974996 6.336848845039428 1.6265961235805369e-15 0.0 0.0 21.04428422323305" Properties=species:S:1:pos:R:3:tags:I:1:initial_magmoms:R:1:forces:R:3 stress="0.0008227200085357111 0.0001565262822893834 -0.0003051644264273586 0.0001565262822893834 -0.00032097752961840996 0.0019325522548755958 -0.0003051644264273586 0.0019325522548755958 0.002769813628101742" energy=-214.6169476607985 pbc="T T T"
Ni       0.00000000      -0.00000000       0.00000000        0       1.00000000       0.00466652       0.00360695      -0.01534615
Ni       2.43905426      -0.00000000       0.00000000        0       1.00000000       0.00016614       0.00070903      -0.02738139
Ni       4.87810852      -0.00000000       0.00000000        0       1.00000000      -0.00587997       0.00357706      -0.01693474
Ni       1.21952713       2.11228295       0.00000000        0       1.00000000       0.00051862      -0.00056434      -0.02866940
Ni       3.65858139       2.11228295       0.00000000        0       1.00000000      -0.00052952      -0.00097946      -0.02729379
Ni       6.09763564       2.11228295       0.00000000        0       1.00000000      -0.00089630      -0.00037553      -0.02157131
Ni       2.43905426       4.22456590       0.00000000        0       1.00000000      -0.00044424      -0.00240774      -0.00969012
Ni       4.87810852       4.22456590       0.00000000        0       1.00000000       0.00084811       0.00350204      -0.01881721
Ni       7.31716277       4.22456590       0.00000000        0       1.00000000      -0.00091547       0.00417693      -0.02117298
Ni       1.21952713       0.70409432       2.01167273        1       1.00000000       0.00736343       0.01130031       0.10100551
Ni       3.65858139       0.70409432       2.01167273        1       1.00000000      -0.01427216       0.00875912       0.11261002
Ni       6.09763564       0.70409432       2.01167273        1       1.00000000      -0.01444790       0.02554255      -0.00724392
Ni       2.43905426       2.81637726       2.01167273        1       1.00000000      -0.00633565      -0.00068759       0.10233417
Ni       4.87810852       2.81637726       2.01167273        1       1.00000000      -0.01447319       0.01858956       0.02023134
Ni       7.31716277       2.81637726       2.01167273        1       1.00000000       0.00185665       0.02805839      -0.00066276
Ni       3.65858139       4.92866021       2.01167273        1       1.00000000       0.02518539       0.04623328       0.04671479
Ni       6.09763564       4.92866021       2.01167273        1       1.00000000      -0.00150475       0.06608543       0.05991327
Ni       8.53668990       4.92866021       2.01167273        1       1.00000000      -0.03754367       0.05015917       0.03607911
Ni      -0.00086478       1.43410285       4.03802757        2       1.00000000      -0.00052942      -0.00138936      -0.00004380
Ni       2.43413216       1.42325845       4.05249311        2       1.00000000      -0.00085390      -0.00641242       0.01173689
Ni       4.86522392       1.43340500       4.04559157        2       1.00000000      -0.00170507      -0.00206707       0.00114369
Ni       1.21078524       3.53999196       4.03818507        2       1.00000000      -0.00116412      -0.00124840      -0.00217461
Ni       3.65594488       3.53722659       4.03960934        2       1.00000000       0.00090419      -0.00002597      -0.00205178
Ni       6.09315336       3.54541737       4.03070305        2       1.00000000       0.00037899      -0.00128437      -0.00277727
Ni       2.43258041       5.65576267       4.02715405        2       1.00000000      -0.00021694      -0.00002667      -0.00118265
Ni       4.88766732       5.66448468       4.06104398        2       1.00000000       0.00434343       0.00307527       0.01220222
Ni       7.30038533       5.66452099       4.06505974        2       1.00000000      -0.00230610       0.00162633       0.01450937
Ni      -0.02625320       0.02952541       6.03008244        3       1.00000000       0.00666471      -0.00161216       0.00330856
Ni       2.43695529       0.00989686       6.34810648        3       1.00000000       0.01861730      -0.02341488       0.24339168
Ni       4.88557377       0.02999922       6.05370053        3       1.00000000       0.00134406      -0.00191379       0.00745685
Ni       1.16325636       2.18097331       6.12330679        3       1.00000000      -0.00010209      -0.00873582      -0.00628798
Ni       3.68410180       2.17951546       6.14842866        3       1.00000000      -0.00142873      -0.00659691      -0.00933668
Ni       6.08332120       2.16078884       6.02583757        3       1.00000000       0.00025386      -0.00277464      -0.00166396
Ni       2.42951748       4.29115592       6.02838275        3       1.00000000       0.00172077      -0.00160626      -0.00609178
Ni       4.87874025       4.27064701       6.03308043        3       1.00000000       0.00503493       0.00220461       0.00186024
Ni       7.29588724       4.27271932       6.04224237        3       1.00000000      -0.00101233      -0.00008879       0.00833694
O        2.40516412       1.59954863       7.28354520        0       0.00000000      -0.00003052       0.08434738       0.03572314
O        3.03979450      -0.49788688       8.94910297        0       0.00000000       0.05544370      -0.24041515      -0.31015981
H        3.14692927       0.16619289       9.67437837        0       0.00000000      -0.02871874      -0.05692608      -0.28200370
