39
Lattice="7.4846239402392785 2.4779678226937893e-34 0.0 3.742311970119648 6.481874470020422 0.0 0.0 0.0 20.98755986535968" Properties=species:S:1:pos:R:3:tags:I:1:initial_magmoms:R:1:forces:R:3 energy=-201.20751611917348 free_energy=-201.20751611917348 stress="0.008098470965245682 0.0005453706808197959 -0.00032163458109380155 0.0005453706808197959 0.008303451239666065 0.001093706177458063 -0.00032163458109380155 0.001093706177458063 -0.009249142135113315" pbc="T T T"
Ni       0.00000000      -0.00000000       0.10000000        0       1.00000000       0.00044832      -0.00214376      -0.30177633
Ni       2.49487465      -0.00000000       0.10000000        0       1.00000000       0.00274389       0.00767407      -0.27301745
Ni       4.98974929       0.00000000       0.10000000        0       1.00000000      -0.00339490       0.00887088      -0.27468296
Ni       1.24743732       2.16062482       0.10000000        0       1.00000000       0.00910307       0.00304619      -0.27442566
Ni       3.74231197       2.16062482       0.10000000        0       1.00000000       0.00061606       0.00070148      -0.23837230
Ni       6.23718662       2.16062482       0.10000000        0       1.00000000      -0.01004108       0.00277813      -0.27413422
Ni       2.49487465       4.32124965       0.10000000        0       1.00000000       0.00227490      -0.00846707      -0.27717468
Ni       4.98974929       4.32124965       0.10000000        0       1.00000000      -0.00220684      -0.00786308      -0.27604160
Ni       7.48462394       4.32124965       0.10000000        0       1.00000000      -0.00024527      -0.00645071      -0.31233581
Ni       1.24743732       0.72020827       2.05723380        1       1.00000000       0.12290750       0.05200478      -0.14456640
Ni       3.74231197       0.72020827       2.05723380        1       1.00000000      -0.00105546       0.00240287       0.20557723
Ni       6.23718662       0.72020827       2.05723380        1       1.00000000      -0.12120548       0.05822869      -0.14070241
Ni       2.49487465       2.88083310       2.05723380        1       1.00000000       0.01525561       0.00303667       0.22198851
Ni       4.98974929       2.88083310       2.05723380        1       1.00000000      -0.01807089       0.00033122       0.23307807
Ni       7.48462394       2.88083310       2.05723380        1       1.00000000       0.00264817       0.46357410      -0.40548038
Ni       3.74231197       5.04145792       2.05723380        1       1.00000000       0.00278358      -0.11070459      -0.13593804
Ni       6.23718662       5.04145792       2.05723380        1       1.00000000       0.46595167      -0.26832844      -0.59623543
Ni       8.73206126       5.04145792       2.05723380        1       1.00000000      -0.46842381      -0.27586699      -0.60339610
Ni       0.00219673       1.57209374       3.91799649        2       1.00000000      -0.00046903      -1.06707412       0.89214744
Ni       2.49428495       1.44568297       4.08834301        2       1.00000000      -0.04018933       0.01529022       0.00427698
Ni       4.98860597       1.44260199       4.08997306        2       1.00000000       0.03371309       0.00932412      -0.01290986
Ni       1.25669840       3.59569062       4.10638264        2       1.00000000       0.03938129      -0.04136071       0.08347406
Ni       3.73999681       3.60656836       4.09354016        2       1.00000000       0.00391762       0.10154901       0.08908612
Ni       6.23126565       3.59643913       4.10380086        2       1.00000000      -0.03698685      -0.03218283       0.05204045
Ni       2.35789725       5.68440969       3.91617835        2       1.00000000       1.04911992       0.52670859       1.18095610
Ni       5.12661297       5.68441290       3.91781220        2       1.00000000      -1.03675219       0.51933940       1.13898364
Ni       7.48614592       5.76108444       4.09307284        2       1.00000000       0.00673338      -0.03247869      -0.09645931
Ni      -0.00093016      -0.09684620       5.69226521        3       1.00000000      -0.00761677       0.63595871       1.69258623
Ni       2.52782157      -0.01570745       6.05021380        3       1.00000000      -0.15074197      -0.11240849      -0.13271443
Ni       4.95455799      -0.01524436       6.06184818        3       1.00000000       0.14140988      -0.12084937      -0.12468591
Ni       1.23710669       2.13785627       6.12952861        3       1.00000000       0.14179591      -0.06895608       0.11910078
Ni       3.74112462       2.15404084       6.07162889        3       1.00000000      -0.03984800      -0.01042957      -0.04507817
Ni       6.23945641       2.14605446       6.12561690        3       1.00000000      -0.39268913       0.10932450      -0.07570887
Ni       2.49554978       4.30471609       6.12719716        3       1.00000000       0.11677173       0.10320083       0.28759935
Ni       4.99467335       4.29619143       6.11036773        3       1.00000000      -0.18392685       0.10508366       0.38678014
Ni       7.48305024       4.33528763       6.08038170        3       1.00000000       0.01585583       0.06864042      -0.02415749
O       -0.04000887       1.23588899       7.08337361        0       1.00000000       0.36125932      -0.18561514      -0.26995493
O        0.09412738      -1.55202267       8.34005062        0       1.00000000       0.28975038      -0.47780792      -1.68524100
H        0.85070368      -0.93739240       8.15622589        0       1.00000000      -0.31057728       0.03191900       0.40751465
