39
Lattice="7.4846239402392785 2.4779678226937893e-34 0.0 3.742311970119648 6.481874470020422 0.0 0.0 0.0 20.98755986535968" Properties=species:S:1:pos:R:3:tags:I:1:initial_magmoms:R:1:forces:R:3 energy=-202.15572064975072 free_energy=-202.15572064975072 stress="0.007468359368263673 0.00010224245319426436 -0.0008414261007272311 0.00010224245319426436 0.010415128765106165 0.002407483333262809 -0.0008414261007272311 0.002407483333262809 -0.01183721597233018" pbc="T T T"
Ni       0.00000000      -0.00000000       0.10000000        0       1.00000000       0.00936212       0.00140945      -0.26417063
Ni       2.49487465      -0.00000000       0.10000000        0       1.00000000       0.00002431      -0.00393436      -0.26300194
Ni       4.98974929       0.00000000       0.10000000        0       1.00000000      -0.01108165       0.00227897      -0.26712561
Ni       1.24743732       2.16062482       0.10000000        0       1.00000000      -0.00014676      -0.00168272      -0.27807294
Ni       3.74231197       2.16062482       0.10000000        0       1.00000000       0.00014565      -0.00075372      -0.27375505
Ni       6.23718662       2.16062482       0.10000000        0       1.00000000      -0.00024593       0.00074740      -0.26927847
Ni       2.49487465       4.32124965       0.10000000        0       1.00000000       0.00011846      -0.00163382      -0.24634575
Ni       4.98974929       4.32124965       0.10000000        0       1.00000000       0.00588375       0.00356235      -0.25561535
Ni       7.48462394       4.32124965       0.10000000        0       1.00000000      -0.00596972       0.00428207      -0.25751230
Ni       1.24743732       0.72020827       2.05723380        1       1.00000000       0.03567837      -0.06633910       0.10123894
Ni       3.74231197       0.72020827       2.05723380        1       1.00000000      -0.04393047      -0.04523585       0.09857497
Ni       6.23718662       0.72020827       2.05723380        1       1.00000000      -0.03407938      -0.08787227      -0.17337394
Ni       2.49487465       2.88083310       2.05723380        1       1.00000000       0.00727588       0.00116906       0.09558814
Ni       4.98974929       2.88083310       2.05723380        1       1.00000000       0.01533146       0.03531268      -0.00077405
Ni       7.48462394       2.88083310       2.05723380        1       1.00000000      -0.02067722       0.03361442      -0.02927202
Ni       3.74231197       5.04145792       2.05723380        1       1.00000000       0.08186028       0.06619631       0.09784076
Ni       6.23718662       5.04145792       2.05723380        1       1.00000000      -0.00795243       0.02972169       0.19634280
Ni       8.73206126       5.04145792       2.05723380        1       1.00000000      -0.07937842       0.10524208       0.05683708
Ni      -0.02296588       1.42709366       4.02045142        2       1.00000000       0.03554742       0.02788221       0.11866268
Ni       2.48840187       1.43366002       4.05900775        2       1.00000000      -0.03615830       0.03445912       0.13784556
Ni       4.99456357       1.43500204       4.03222499        2       1.00000000      -0.03208455      -0.00381899       0.06199102
Ni       1.23535566       3.62941627       4.02833378        2       1.00000000      -0.04516455       0.02889312       0.04779801
Ni       3.75355071       3.61358959       4.04159220        2       1.00000000       0.01853948       0.08637810      -0.01488627
Ni       6.23919941       3.59544867       4.06711998        2       1.00000000      -0.00562142       0.05893752      -0.00745747
Ni       2.49729023       5.75122934       4.04323859        2       1.00000000      -0.01893756       0.00207969       0.11715312
Ni       5.03005823       5.78929554       4.11224988        2       1.00000000      -0.12961695       0.06261120      -0.05958247
Ni       7.44015674       5.79721886       4.10533600        2       1.00000000       0.13203399       0.01637714      -0.13832759
Ni      -0.04181639      -0.01250923       6.01948770        3       1.00000000      -0.04918516       0.10730124       0.09172100
Ni       2.45926743       0.10441307       6.55819354        3       1.00000000      -0.03096872       0.14978812      -0.07576151
Ni       5.00910547      -0.01375748       6.01564922        3       1.00000000       0.00290435       0.10859517       0.15317360
Ni       1.06852062       2.24726675       5.96865650        3       1.00000000       0.07887990      -0.06812395       0.28991514
Ni       3.85595192       2.21558998       5.99895273        3       1.00000000      -0.20353903       0.01041186       0.35409958
Ni       6.20494980       2.16680995       6.02485161        3       1.00000000       0.05793265       0.05356428      -0.02602698
Ni       2.48941124       4.33434790       6.02660517        3       1.00000000      -0.03937172       0.10144893       0.12154461
Ni       5.01979406       4.38946842       6.03551908        3       1.00000000      -0.07845925      -0.01588578       0.16031301
Ni       7.42410954       4.42353567       6.03870745        3       1.00000000       0.01829065      -0.07757684       0.21340819
O        2.43274652       2.02987723       7.06681043        0       1.00000000       0.22274470      -0.17532041       0.45884342
O        2.66820841      -0.17308609       8.36780329        0       1.00000000       0.56455599      -0.22911256      -0.27018987
H        3.42426096       0.44992617       8.52271690        0       1.00000000      -0.41454019      -0.35497381       0.19763858
