39
Lattice="7.4846239402392785 2.4779678226937893e-34 0.0 3.742311970119648 6.481874470020422 0.0 0.0 0.0 20.98755986535968" Properties=species:S:1:pos:R:3:tags:I:1:initial_magmoms:R:1:forces:R:3 energy=-202.49316590797918 free_energy=-202.49316590797918 stress="0.01154221600455694 0.00018423421458020923 -0.00018727036166857463 0.00018423421458020923 0.008352263347010733 0.0028008027767956333 -0.00018727036166857463 0.0028008027767956333 -0.010244994245959685" pbc="T T T"
Ni       0.00000000      -0.00000000       0.10000000        0       1.00000000      -0.00062198      -0.00258457      -0.27246687
Ni       2.49487465      -0.00000000       0.10000000        0       1.00000000       0.00094474      -0.00349680      -0.27315873
Ni       4.98974929       0.00000000       0.10000000        0       1.00000000      -0.00064534       0.00313840      -0.25548268
Ni       1.24743732       2.16062482       0.10000000        0       1.00000000      -0.00054827       0.00448333      -0.25536332
Ni       3.74231197       2.16062482       0.10000000        0       1.00000000       0.00774207       0.00442880      -0.25557146
Ni       6.23718662       2.16062482       0.10000000        0       1.00000000      -0.00730107       0.00409386      -0.25618149
Ni       2.49487465       4.32124965       0.10000000        0       1.00000000       0.00495555      -0.00146861      -0.25831730
Ni       4.98974929       4.32124965       0.10000000        0       1.00000000      -0.00010100      -0.00665530      -0.26360723
Ni       7.48462394       4.32124965       0.10000000        0       1.00000000      -0.00613346      -0.00142858      -0.25703940
Ni       1.24743732       0.72020827       2.05723380        1       1.00000000      -0.00172739       0.03776457       0.08105602
Ni       3.74231197       0.72020827       2.05723380        1       1.00000000       0.06974420      -0.03837158       0.05445895
Ni       6.23718662       0.72020827       2.05723380        1       1.00000000      -0.06814465      -0.03053815       0.06033633
Ni       2.49487465       2.88083310       2.05723380        1       1.00000000       0.07732117       0.10040864       0.07183441
Ni       4.98974929       2.88083310       2.05723380        1       1.00000000      -0.00482344      -0.00386194       0.27274271
Ni       7.48462394       2.88083310       2.05723380        1       1.00000000      -0.08056354       0.08449677       0.09513335
Ni       3.74231197       5.04145792       2.05723380        1       1.00000000      -0.03502043      -0.06802349       0.06835499
Ni       6.23718662       5.04145792       2.05723380        1       1.00000000       0.02225702      -0.06295815       0.08385661
Ni       8.73206126       5.04145792       2.05723380        1       1.00000000      -0.01711882      -0.02535948      -0.02091596
Ni      -0.03092022       1.45562655       4.03205411        2       1.00000000       0.10776977      -0.06596135       0.18146945
Ni       2.52564753       1.46153229       4.02590809        2       1.00000000      -0.12131975      -0.04354123       0.19191744
Ni       4.98968764       1.42209229       4.08997126        2       1.00000000       0.00101601       0.14824114      -0.18371401
Ni       1.24591159       3.56767492       4.05734000        2       1.00000000       0.00067151       0.40055368      -0.32475030
Ni       3.78120970       3.62966253       4.11374631        2       1.00000000      -0.07114737      -0.04874934       0.07158770
Ni       6.19886194       3.62689150       4.11110264        2       1.00000000       0.06113308      -0.07450858       0.00635101
Ni       2.48669817       5.74015710       4.05946043        2       1.00000000       0.05218050       0.08832511      -0.07303816
Ni       4.98504424       5.75262408       4.02783508        2       1.00000000      -0.02555756       0.08354807       0.34804126
Ni       7.47929955       5.74417029       4.06718946        2       1.00000000      -0.01916888       0.06323349      -0.20235633
Ni      -0.06938540      -0.01342646       6.02287796        3       1.00000000       0.43525060       0.72862784       0.79861995
Ni       2.53036975      -0.00363120       6.00307618        3       1.00000000      -0.48763529       0.78177845       0.87316774
Ni       4.96860835      -0.01723924       6.01134234        3       1.00000000       0.09820800       0.15279523       0.24782573
Ni       1.24212235       2.32395738       6.02482779        3       1.00000000      -0.02116102      -1.12603190       0.69831613
Ni       3.78333741       2.20091479       6.05099846        3       1.00000000      -0.07004446      -0.02493492       0.01931384
Ni       6.19075562       2.20754494       6.05563023        3       1.00000000       0.02226074      -0.04333983       0.03000296
Ni       2.46507747       4.31667497       6.02837874        3       1.00000000       0.27716810       0.41977318       0.11913617
Ni       4.98736881       4.44788351       6.48878257        3       1.00000000      -0.00956433      -0.98146122      -0.98575999
Ni       7.49598186       4.32733065       6.02969533        3       1.00000000      -0.27520704       0.32541950       0.16717209
O        1.22151592       0.89152756       7.13115532        0       1.00000000       0.07756690      -0.41902607      -0.92603213
O        1.38057664      -1.65139477       8.19625511        0       1.00000000       0.71843215       0.13189172       0.59277877
H        2.14544270      -1.02133642       8.34288451        0       1.00000000      -0.71106704      -0.49070067      -0.06971827
