36
Lattice="7.4846239402392785 2.4779678226937893e-34 0.0 3.742311970119648 6.481874470020422 0.0 0.0 0.0 8.148226475647018" Properties=species:S:1:pos:R:3:tags:I:1:initial_magmoms:R:1:forces:R:3 energy=-192.98923160197594 free_energy=-192.98923160197594 stress="0.009933972163483306 8.348627652261156e-16 2.461151846417922e-16 8.348627652261156e-16 0.009933972163487983 -7.50448874129987e-16 2.461151846417922e-16 -7.50448874129987e-16 -0.07170336706007352" pbc="T T T"
Ni       0.00000000      -0.00000000       0.11180500        4       1.00000000       0.00000000      -0.00000000       0.03503388
Ni       2.49487465      -0.00000000       0.11180500        4       1.00000000       0.00000000      -0.00000000       0.03503388
Ni       4.98974929       0.00000000       0.11180500        4       1.00000000      -0.00000000       0.00000000       0.03503388
Ni       1.24743732       2.16062482       0.11180500        4       1.00000000       0.00000000      -0.00000000       0.03503388
Ni       3.74231197       2.16062482       0.11180500        4       1.00000000       0.00000000      -0.00000000       0.03503388
Ni       6.23718662       2.16062482       0.11180500        4       1.00000000      -0.00000000       0.00000000       0.03503388
Ni       2.49487465       4.32124965       0.11180500        4       1.00000000       0.00000000      -0.00000000       0.03503388
Ni       4.98974929       4.32124965       0.11180500        4       1.00000000       0.00000000      -0.00000000       0.03503388
Ni       7.48462394       4.32124965       0.11180500        4       1.00000000      -0.00000000       0.00000000       0.03503388
Ni       1.24743732       0.72020827       2.06903879        3       1.00000000       0.00000000      -0.00000000      -0.00419123
Ni       3.74231197       0.72020827       2.06903879        3       1.00000000       0.00000000      -0.00000000      -0.00419123
Ni       6.23718662       0.72020827       2.06903879        3       1.00000000      -0.00000000       0.00000000      -0.00419123
Ni       2.49487465       2.88083310       2.06903879        3       1.00000000       0.00000000      -0.00000000      -0.00419123
Ni       4.98974929       2.88083310       2.06903879        3       1.00000000      -0.00000000      -0.00000000      -0.00419123
Ni       7.48462394       2.88083310       2.06903879        3       1.00000000      -0.00000000       0.00000000      -0.00419123
Ni       3.74231197       5.04145792       2.06903879        3       1.00000000       0.00000000      -0.00000000      -0.00419123
Ni       6.23718662       5.04145792       2.06903879        3       1.00000000       0.00000000       0.00000000      -0.00419123
Ni       8.73206126       5.04145792       2.06903879        3       1.00000000      -0.00000000       0.00000000      -0.00419123
Ni       0.00000000       1.44041655       4.04213106        2       1.00000000       0.00000000      -0.00000000       0.00419123
Ni       2.49487465       1.44041655       4.04213106        2       1.00000000       0.00000000      -0.00000000       0.00419123
Ni       4.98974929       1.44041655       4.04213106        2       1.00000000      -0.00000000       0.00000000       0.00419123
Ni       1.24743732       3.60104137       4.04213106        2       1.00000000       0.00000000       0.00000000       0.00419123
Ni       3.74231197       3.60104137       4.04213106        2       1.00000000       0.00000000       0.00000000       0.00419123
Ni       6.23718662       3.60104137       4.04213106        2       1.00000000      -0.00000000       0.00000000       0.00419123
Ni       2.49487465       5.76166620       4.04213106        2       1.00000000       0.00000000      -0.00000000       0.00419123
Ni       4.98974929       5.76166620       4.04213106        2       1.00000000       0.00000000      -0.00000000       0.00419123
Ni       7.48462394       5.76166620       4.04213106        2       1.00000000      -0.00000000       0.00000000       0.00419123
Ni       0.00000000      -0.00000000       5.99936486        1       1.00000000       0.00000000      -0.00000000      -0.03503388
Ni       2.49487465      -0.00000000       5.99936486        1       1.00000000      -0.00000000       0.00000000      -0.03503388
Ni       4.98974929       0.00000000       5.99936486        1       1.00000000      -0.00000000       0.00000000      -0.03503388
Ni       1.24743732       2.16062482       5.99936486        1       1.00000000       0.00000000      -0.00000000      -0.03503388
Ni       3.74231197       2.16062482       5.99936486        1       1.00000000       0.00000000      -0.00000000      -0.03503388
Ni       6.23718662       2.16062482       5.99936486        1       1.00000000      -0.00000000       0.00000000      -0.03503388
Ni       2.49487465       4.32124965       5.99936486        1       1.00000000       0.00000000      -0.00000000      -0.03503388
Ni       4.98974929       4.32124965       5.99936486        1       1.00000000      -0.00000000      -0.00000000      -0.03503388
Ni       7.48462394       4.32124965       5.99936486        1       1.00000000      -0.00000000       0.00000000      -0.03503388
