38
Lattice="8.12023694367038 -2.502811802376711e-15 -3.0154273300879247e-16 4.060118471835193 7.032331477967455 9.12873696737661e-17 0.0 0.0 21.94967493036051" Properties=species:S:1:pos:R:3:tags:I:1:initial_magmoms:R:1:forces:R:3 stress="0.0006390672002306481 4.76360026547972e-17 5.7602537923014765e-18 4.76360026547972e-17 0.0006390672002305718 -4.809173503025403e-18 5.7602537923014765e-18 -4.809173503025403e-18 -0.0024617171162850133" energy=-239.23964037324816 pbc="T T T"
Pt       0.00000000       0.00000000       0.00000000        0       0.00000000       0.00000000       0.00000000      -0.21564359
Pt       2.70674565       0.00000000       0.00000000        0       0.00000000       0.00097901      -0.00402405      -0.21485399
Pt       5.41349130       0.00000000       0.00000000        0       0.00000000      -0.00097901      -0.00402405      -0.21485399
Pt       1.35337282       2.34411049       0.00000000        0       0.00000000      -0.00299542       0.00285988      -0.21485399
Pt       4.06011847       2.34411049       0.00000000        0       0.00000000       0.00000000       0.00000000      -0.20698700
Pt       6.76686412       2.34411049       0.00000000        0       0.00000000       0.00299542       0.00285988      -0.21485399
Pt       2.70674565       4.68822099       0.00000000        0       0.00000000      -0.00397444       0.00116418      -0.21485399
Pt       5.41349130       4.68822099       0.00000000        0       0.00000000       0.00397444       0.00116418      -0.21485399
Pt       8.12023694       4.68822099       0.00000000        0       0.00000000      -0.00000000      -0.00000000      -0.22553399
Pt       1.35337282       0.78137016       2.31293021        1       0.00000000      -0.01165221      -0.00672741       0.28844240
Pt       4.06011847       0.78137016       2.31293021        1       0.00000000       0.00000000       0.01932340       0.22381311
Pt       6.76686412       0.78137016       2.31293021        1       0.00000000       0.01165221      -0.00672741       0.28844240
Pt       2.70674565       3.12548066       2.31293021        1       0.00000000       0.01673455      -0.00966170       0.22381311
Pt       5.41349130       3.12548066       2.31293021        1       0.00000000      -0.01673455      -0.00966170       0.22381311
Pt       8.12023694       3.12548066       2.31293021        1       0.00000000      -0.00000000      -0.04478671       0.25488419
Pt       4.06011847       5.46959115       2.31293021        1       0.00000000       0.00000000       0.01345481       0.28844240
Pt       6.76686412       5.46959115       2.31293021        1       0.00000000      -0.03878643       0.02239336       0.25488419
Pt       9.47360977       5.46959115       2.31293021        1       0.00000000       0.03878643       0.02239336       0.25488419
Pt       0.00000000       1.55894531       4.62170522        2       0.00000000       0.00000000      -0.05472009      -0.00812407
Pt       2.70757613       1.56321981       4.60509189        2       0.00000000      -0.00244433      -0.00141123      -0.01443585
Pt       5.41266081       1.56321981       4.60509189        2       0.00000000       0.00244433      -0.00141123      -0.01443585
Pt       1.35179091       3.90776414       4.59349592        2       0.00000000       0.00825448      -0.00476573      -0.01206608
Pt       4.06011847       3.90589186       4.60509189        2       0.00000000       0.00000000       0.00282247      -0.01443585
Pt       6.76844603       3.90776414       4.59349592        2       0.00000000      -0.00825448      -0.00476573      -0.01206608
Pt       2.71003223       6.25285883       4.62170522        2       0.00000000       0.04738899       0.02736004      -0.00812407
Pt       5.41020471       6.25285883       4.62170522        2       0.00000000      -0.04738899       0.02736004      -0.00812407
Pt       8.12023694       6.24913468       4.59349592        2       0.00000000      -0.00000000       0.00953146      -0.01206608
Pt       0.00000000       0.00000000       6.90056031        3       0.00000000       0.00000000       0.00000000      -0.03090496
Pt       2.72394920       0.00090778       6.94983484        3       0.00000000       0.02451880      -0.00184094      -0.03988387
Pt       5.39628774       0.00090778       6.94983484        3       0.00000000      -0.02451880      -0.00184094      -0.03988387
Pt       1.36276077       2.35855532       6.94983484        3       0.00000000       0.01066510       0.02215437      -0.03988387
Pt       4.06011847       2.34411049       6.95638613        3       0.00000000       0.00000000       0.00000000      -0.02469053
Pt       6.75747618       2.35855532       6.94983484        3       0.00000000      -0.01066510       0.02215437      -0.03988387
Pt       2.69893003       4.67286838       6.94983484        3       0.00000000      -0.01385370      -0.02031343      -0.03988387
Pt       5.42130691       4.67286838       6.94983484        3       0.00000000       0.01385370      -0.02031343      -0.03988387
Pt       8.12023694       4.68822099       6.95758896        3       0.00000000      -0.00000000       0.00000000      -0.04869553
O       -0.00000000      -0.00000000       8.99126791        0       0.00000000      -0.00000000      -0.00000000       0.09637040
H        0.00000000       0.00000000       9.97532080        0       0.00000000       0.00000000       0.00000000      -0.01302870
