39
Lattice="7.48445684844538 -1.3897408493980594e-14 -7.065633340829903e-16 3.7422284242227066 6.48172976428211 2.5228537460897006e-15 0.0 0.0 21.202961997606344" Properties=species:S:1:pos:R:3:tags:I:1:initial_magmoms:R:1:forces:R:3 stress="-0.0029899660635609275 0.00014396149813758396 0.00017528919984078188 0.00014396149813758396 -0.00288728307856995 -0.0003493808970028228 0.00017528919984078188 -0.0003493808970028228 0.00011307875215189368" energy=-157.94416870343753 pbc="T T T"
Cu       0.00000000       0.00000000       0.00000000        0       0.00000000       0.00015747       0.00023656      -0.07650760
Cu       2.49481895       0.00000000       0.00000000        0       0.00000000      -0.00024230       0.00013628      -0.07782133
Cu       4.98963790       0.00000000       0.00000000        0       0.00000000       0.00009810      -0.00075007      -0.07915113
Cu       1.24740947       2.16057659       0.00000000        0       0.00000000      -0.00013884      -0.00054747      -0.07735217
Cu       3.74222842       2.16057659       0.00000000        0       0.00000000      -0.00113376      -0.00080758      -0.08330033
Cu       6.23704737       2.16057659       0.00000000        0       0.00000000       0.00132859      -0.00093234      -0.08231630
Cu       2.49481895       4.32115318       0.00000000        0       0.00000000      -0.00031322       0.00047180      -0.07935326
Cu       4.98963790       4.32115318       0.00000000        0       0.00000000      -0.00008907       0.00150677      -0.08266284
Cu       7.48445685       4.32115318       0.00000000        0       0.00000000       0.00044063       0.00038094      -0.07932952
Cu       1.24740947       0.72019220       2.06931284        1       0.00000000      -0.00321534       0.01150435       0.15912173
Cu       3.74222842       0.72019220       2.06931284        1       0.00000000      -0.01613492      -0.00810262       0.11206651
Cu       6.23704737       0.72019220       2.06931284        1       0.00000000       0.02405187      -0.00933149       0.11947068
Cu       2.49481895       2.88076878       2.06931284        1       0.00000000      -0.00993368      -0.01468942       0.10493654
Cu       4.98963790       2.88076878       2.06931284        1       0.00000000       0.00428224       0.00165539       0.04811044
Cu       7.48445685       2.88076878       2.06931284        1       0.00000000       0.01557928      -0.01651960       0.11387724
Cu       3.74222842       5.04134537       2.06931284        1       0.00000000       0.00123622       0.02783987       0.10707072
Cu       6.23704737       5.04134537       2.06931284        1       0.00000000       0.00359194       0.02637070       0.10796434
Cu       8.73186632       5.04134537       2.06931284        1       0.00000000       0.00919606       0.00421906       0.18549636
Cu       0.00459746       1.44154334       4.16908033        2       0.00000000       0.02548389      -0.01463664       0.00963042
Cu       2.49509722       1.43926975       4.16522855        2       0.00000000      -0.01089258      -0.00274486       0.02367934
Cu       4.99256606       1.44404931       4.13916955        2       0.00000000       0.01035748      -0.00882977      -0.01911315
Cu       1.25209474       3.58769202       4.15809463        2       0.00000000      -0.00079203       0.01826163      -0.00642247
Cu       3.74463476       3.60675737       4.13765068        2       0.00000000       0.00415967      -0.02189298      -0.01340142
Cu       6.24089098       3.60740536       4.13905702        2       0.00000000       0.00783028      -0.02676938      -0.01644849
Cu       2.51003276       5.77004788       4.16559827        2       0.00000000      -0.02252534      -0.01882896      -0.04475768
Cu       4.99412413       5.77089314       4.16117469        2       0.00000000      -0.00213139      -0.01211663       0.01896232
Cu       7.48254436       5.76817820       4.16220184        2       0.00000000       0.00566701      -0.01188948      -0.04211371
Cu      -0.04133660      -0.03712911       6.29780163        3       0.00000000       0.08524842       0.03813988      -0.01515141
Cu       2.56132944      -0.04041772       6.28784217        3       0.00000000      -0.06230738       0.00555761      -0.01204114
Cu       5.00039568      -0.00197756       6.22325777        3       0.00000000       0.00495188      -0.00084215      -0.00599155
Cu       1.25683099       2.20166295       6.30238500        3       0.00000000      -0.01962983      -0.01014986      -0.02197786
Cu       3.76531624       2.16434584       6.21830805        3       0.00000000      -0.01146171      -0.00697130      -0.01555836
Cu       6.22981681       2.16633917       6.22304319        3       0.00000000       0.00509500      -0.01716691      -0.02037340
Cu       2.50243059       4.30876566       6.22722439        3       0.00000000      -0.00042299      -0.01562926      -0.01247459
Cu       4.99912931       4.29044980       6.21736178        3       0.00000000      -0.00884507       0.00752785      -0.03118228
Cu       7.49787963       4.31005191       6.22576587        3       0.00000000      -0.01290413      -0.03062953      -0.00259620
O        1.27137163       0.58614921       7.66030874        0       0.00000000      -0.03757627       0.04422922      -0.02690937
O        1.16869706       0.11512030       9.08779458        0       0.00000000       0.04063290       0.05702395      -0.03587514
H        2.12774251       0.03750360       9.28972415        0       0.00000000      -0.02869911       0.00571643      -0.05020393
