39
Lattice="7.48445684844538 -1.3897408493980594e-14 -7.065633340829903e-16 3.7422284242227066 6.48172976428211 2.5228537460897006e-15 0.0 0.0 21.202961997606344" Properties=species:S:1:pos:R:3:tags:I:1:initial_magmoms:R:1:forces:R:3 stress="-0.002830590961398132 8.621158902487334e-05 0.0001657868501806551 8.621158902487334e-05 -0.0032438334539661856 0.0005038258561825084 0.0001657868501806551 0.0005038258561825084 -0.0010771905996825124" energy=-157.97332604586975 pbc="T T T"
Cu       0.00000000       0.00000000       0.00000000        0       0.00000000       0.00014842      -0.00059473      -0.07673126
Cu       2.49481895       0.00000000       0.00000000        0       0.00000000      -0.00016544      -0.00057000      -0.07757331
Cu       4.98963790       0.00000000       0.00000000        0       0.00000000      -0.00005859      -0.00090222      -0.08146372
Cu       1.24740947       2.16057659       0.00000000        0       0.00000000       0.00006746      -0.00052520      -0.08103363
Cu       3.74222842       2.16057659       0.00000000        0       0.00000000      -0.00015951      -0.00032190      -0.08446650
Cu       6.23704737       2.16057659       0.00000000        0       0.00000000       0.00022789      -0.00029477      -0.08450494
Cu       2.49481895       4.32115318       0.00000000        0       0.00000000       0.00035314       0.00081490      -0.08086573
Cu       4.98963790       4.32115318       0.00000000        0       0.00000000      -0.00005438       0.00133783      -0.07952941
Cu       7.48445685       4.32115318       0.00000000        0       0.00000000      -0.00032214       0.00085944      -0.08099904
Cu       1.24740947       0.72019220       2.06931284        1       0.00000000       0.00439015      -0.02051077       0.11843789
Cu       3.74222842       0.72019220       2.06931284        1       0.00000000      -0.00967591      -0.01929171       0.06928272
Cu       6.23704737       0.72019220       2.06931284        1       0.00000000       0.01775162      -0.01821817       0.06309459
Cu       2.49481895       2.88076878       2.06931284        1       0.00000000       0.02179202      -0.01845473       0.05980491
Cu       4.98963790       2.88076878       2.06931284        1       0.00000000       0.00320323       0.00949092       0.04662942
Cu       7.48445685       2.88076878       2.06931284        1       0.00000000      -0.01335869      -0.01881566       0.06146244
Cu       3.74222842       5.04134537       2.06931284        1       0.00000000       0.01030469       0.01689464       0.11911533
Cu       6.23704737       5.04134537       2.06931284        1       0.00000000      -0.00410483       0.01780818       0.12306533
Cu       8.73186632       5.04134537       2.06931284        1       0.00000000       0.00142230       0.04591669       0.10942286
Cu       0.00338561       1.43097694       4.15067757        2       0.00000000       0.00090200       0.01111067      -0.00072449
Cu       2.49958440       1.43086150       4.15113702        2       0.00000000       0.00073962       0.01267766      -0.00104999
Cu       4.99444208       1.43852450       4.13141514        2       0.00000000       0.00031921       0.00965336      -0.00044855
Cu       1.25217798       3.60335865       4.12455334        2       0.00000000      -0.00046621       0.00782211       0.00236261
Cu       3.74930861       3.60284818       4.14348881        2       0.00000000      -0.00206436       0.00831086      -0.00234230
Cu       6.23875721       3.60165946       4.14296179        2       0.00000000       0.00192347       0.00892114      -0.00008312
Cu       2.50851040       5.76631454       4.15974089        2       0.00000000      -0.00546495       0.00729341      -0.00313799
Cu       4.99442939       5.76139221       4.16874160        2       0.00000000      -0.00476263       0.00292916       0.01226921
Cu       7.47752232       5.76646672       4.16024642        2       0.00000000      -0.00030720       0.00893094      -0.00337184
Cu      -0.02579021      -0.00108424       6.29702238        3       0.00000000      -0.00018045       0.00991343      -0.00952386
Cu       2.53001059      -0.00059154       6.30316030        3       0.00000000       0.00305229       0.01308805      -0.02044113
Cu       4.99312939      -0.00041580       6.21261035        3       0.00000000       0.00302963       0.01067241       0.00355131
Cu       1.25563112       2.21187328       6.18836732        3       0.00000000       0.00112025      -0.00309294       0.00529729
Cu       3.75809773       2.16386117       6.21128676        3       0.00000000       0.00036484       0.01323446       0.00528430
Cu       6.23761318       2.16317811       6.21465527        3       0.00000000      -0.00340086       0.01108214       0.00577873
Cu       2.50122959       4.31599448       6.21762571        3       0.00000000      -0.00470195       0.00604598       0.00246858
Cu       5.00318862       4.29306105       6.24899380        3       0.00000000       0.00142176       0.01098350       0.00480087
Cu       7.49707130       4.31628526       6.21445934        3       0.00000000       0.00380232       0.00486813       0.00065547
O        1.22880880       0.22612563       7.80057956        0       0.00000000      -0.00827564      -0.03113958       0.00907913
O        1.25940692      -0.97420276       8.73012900        0       0.00000000      -0.02367219      -0.04891768      -0.02928035
H        2.04003690      -0.70659130       9.26231219        0       0.00000000       0.00485964      -0.06900992      -0.02429181
