39
Lattice="7.48445684844538 -1.3897408493980594e-14 -7.065633340829903e-16 3.7422284242227066 6.48172976428211 2.5228537460897006e-15 0.0 0.0 21.202961997606344" Properties=species:S:1:pos:R:3:tags:I:1:initial_magmoms:R:1:forces:R:3 stress="-0.0033717558150897844 4.695198570872503e-05 0.00027328803855567434 4.695198570872503e-05 -0.002795329145874721 -0.0003022397127552281 0.00027328803855567434 -0.0003022397127552281 -0.0003434020076512716" energy=-157.94000645840902 pbc="T T T"
Cu       0.00000000       0.00000000       0.00000000        0       0.00000000       0.00047736       0.00043580      -0.08016105
Cu       2.49481895       0.00000000       0.00000000        0       0.00000000      -0.00001510       0.00080789      -0.07583331
Cu       4.98963790       0.00000000       0.00000000        0       0.00000000      -0.00037940       0.00017288      -0.08017846
Cu       1.24740947       2.16057659       0.00000000        0       0.00000000       0.00059262      -0.00042994      -0.07546622
Cu       3.74222842       2.16057659       0.00000000        0       0.00000000      -0.00082449      -0.00046666      -0.07662193
Cu       6.23704737       2.16057659       0.00000000        0       0.00000000       0.00020695      -0.00084272      -0.08290273
Cu       2.49481895       4.32115318       0.00000000        0       0.00000000      -0.00012975      -0.00056885      -0.08006315
Cu       4.98963790       4.32115318       0.00000000        0       0.00000000      -0.00048063       0.00038464      -0.08349791
Cu       7.48445685       4.32115318       0.00000000        0       0.00000000       0.00067876       0.00033814      -0.08245949
Cu       1.24740947       0.72019220       2.06931284        1       0.00000000       0.01632453       0.00995191       0.14757454
Cu       3.74222842       0.72019220       2.06931284        1       0.00000000      -0.00991942       0.00354244       0.15191545
Cu       6.23704737       0.72019220       2.06931284        1       0.00000000       0.00837375       0.03267296       0.10791336
Cu       2.49481895       2.88076878       2.06931284        1       0.00000000      -0.00208112      -0.01775390       0.14199691
Cu       4.98963790       2.88076878       2.06931284        1       0.00000000      -0.01245569      -0.01189181       0.06957353
Cu       7.48445685       2.88076878       2.06931284        1       0.00000000       0.02333638      -0.01370124       0.08220886
Cu       3.74222842       5.04134537       2.06931284        1       0.00000000       0.02985800      -0.01580300       0.09523149
Cu       6.23704737       5.04134537       2.06931284        1       0.00000000       0.00445611       0.01810586       0.07153200
Cu       8.73186632       5.04134537       2.06931284        1       0.00000000      -0.02588950      -0.02198641       0.11111402
Cu       0.01515068       1.44262044       4.15995175        2       0.00000000      -0.00521563      -0.01117964      -0.00528142
Cu       2.50050388       1.43992400       4.17981428        2       0.00000000       0.00129883       0.00422489       0.01174203
Cu       4.98740140       1.44258912       4.15640804        2       0.00000000       0.00272649      -0.01078303       0.00059396
Cu       1.25281761       3.58667042       4.16016598        2       0.00000000      -0.00201711       0.00673904      -0.00622911
Cu       3.74408431       3.59004316       4.15478600        2       0.00000000       0.01298817      -0.00019625      -0.00350437
Cu       6.24133956       3.59940559       4.13208844        2       0.00000000       0.00734850      -0.01101113      -0.02097937
Cu       2.49824041       5.75987307       4.12806767        2       0.00000000       0.00573110      -0.01341049      -0.01321873
Cu       4.99973973       5.76413798       4.15491629        2       0.00000000      -0.00026877      -0.00482160      -0.01809941
Cu       7.48107885       5.76161582       4.15807556        2       0.00000000       0.01470250      -0.00057562      -0.02464781
Cu      -0.00979739      -0.02134191       6.21546422        3       0.00000000       0.01321899      -0.00348262      -0.01717749
Cu       2.50981635      -0.06359358       6.28367909        3       0.00000000      -0.00945545       0.09264949       0.01146555
Cu       5.02051546      -0.02017546       6.21457512        3       0.00000000       0.00433401      -0.00921709      -0.01213152
Cu       1.21704778       2.16997401       6.32552941        3       0.00000000       0.01921853      -0.02158924      -0.05727919
Cu       3.81544863       2.17855000       6.30105125        3       0.00000000      -0.03419575      -0.02398054      -0.02477675
Cu       6.25622294       2.15554615       6.22096168        3       0.00000000      -0.01673731      -0.00834056      -0.01137588
Cu       2.50635104       4.32601358       6.21726792        3       0.00000000       0.00638800      -0.02537524      -0.01657819
Cu       5.00453239       4.31090970       6.21665764        3       0.00000000      -0.00241622      -0.01497733      -0.01202789
Cu       7.49767927       4.30486273       6.22331019        3       0.00000000      -0.00221006       0.00547672      -0.01245530
O        2.52209475       1.36882659       7.66427346        0       0.00000000      -0.04236631       0.02890754       0.03182741
O        2.41664657       0.84372561       9.08234125        0       0.00000000      -0.03942767       0.02819606      -0.08165774
H        3.37220387       0.81609747       9.29806278        0       0.00000000       0.03422580       0.00977868       0.01991536
