39
Lattice="7.48445684844538 -1.3897408493980594e-14 -7.065633340829903e-16 3.7422284242227066 6.48172976428211 2.5228537460897006e-15 0.0 0.0 21.202961997606344" Properties=species:S:1:pos:R:3:tags:I:1:initial_magmoms:R:1:forces:R:3 stress="-0.0017566945732092783 -0.00020314528902586767 -0.00014198985865014998 -0.00020314528902586767 -0.0016231296434308165 -0.0005574839683255597 -0.00014198985865014998 -0.0005574839683255597 0.00010671241608682311" energy=-157.6430039317771 pbc="T T T"
Cu       0.00000000       0.00000000       0.00000000        0       0.00000000      -0.00001697      -0.00051125      -0.07387340
Cu       2.49481895       0.00000000       0.00000000        0       0.00000000      -0.00072765      -0.00063487      -0.07874245
Cu       4.98963790       0.00000000       0.00000000        0       0.00000000       0.00071003      -0.00071611      -0.07882881
Cu       1.24740947       2.16057659       0.00000000        0       0.00000000      -0.00067845      -0.00081873      -0.07980737
Cu       3.74222842       2.16057659       0.00000000        0       0.00000000       0.00012214      -0.00010197      -0.08513991
Cu       6.23704737       2.16057659       0.00000000        0       0.00000000       0.00068307      -0.00079378      -0.07999785
Cu       2.49481895       4.32115318       0.00000000        0       0.00000000      -0.00001274       0.00148949      -0.07970360
Cu       4.98963790       4.32115318       0.00000000        0       0.00000000      -0.00008223       0.00144693      -0.07974848
Cu       7.48445685       4.32115318       0.00000000        0       0.00000000      -0.00000481       0.00032066      -0.08050743
Cu       1.24740947       0.72019220       2.06931284        1       0.00000000      -0.01623666      -0.02049170       0.15558134
Cu       3.74222842       0.72019220       2.06931284        1       0.00000000      -0.00043040      -0.00124003       0.08786204
Cu       6.23704737       0.72019220       2.06931284        1       0.00000000       0.01521299      -0.02059518       0.15154043
Cu       2.49481895       2.88076878       2.06931284        1       0.00000000      -0.00109095      -0.01481930       0.06085267
Cu       4.98963790       2.88076878       2.06931284        1       0.00000000      -0.00121501      -0.01431227       0.06178278
Cu       7.48445685       2.88076878       2.06931284        1       0.00000000      -0.00217434      -0.04847041       0.10100608
Cu       3.74222842       5.04134537       2.06931284        1       0.00000000      -0.00155072       0.02975557       0.14628248
Cu       6.23704737       5.04134537       2.06931284        1       0.00000000      -0.03331859       0.01767971       0.12675659
Cu       8.73186632       5.04134537       2.06931284        1       0.00000000       0.02972199       0.01967859       0.12851531
Cu      -0.00201749       1.41704795       4.17355378        2       0.00000000      -0.00140992       0.01529009       0.00333041
Cu       2.49279434       1.43390173       4.14989716        2       0.00000000      -0.00145695      -0.01287117      -0.00280372
Cu       4.98993706       1.43431270       4.14916671        2       0.00000000      -0.00507085      -0.01355275      -0.00133089
Cu       1.24198715       3.59112653       4.13903351        2       0.00000000       0.00136283       0.00023335      -0.00498404
Cu       3.74079545       3.59542613       4.14028761        2       0.00000000      -0.00207657      -0.01501428       0.00332656
Cu       6.23882684       3.59076075       4.14023528        2       0.00000000      -0.00917119      -0.00115497      -0.00106817
Cu       2.50259077       5.76040183       4.17715444        2       0.00000000      -0.00237511      -0.00395591      -0.01833856
Cu       4.97770337       5.75983241       4.17707451        2       0.00000000       0.00103151      -0.00840342      -0.01180994
Cu       7.48099279       5.75736696       4.14580532        2       0.00000000      -0.00101257      -0.01591244      -0.00428985
Cu      -0.01021560      -0.03383705       6.38270445        3       0.00000000      -0.00672711       0.00421781      -0.09071445
Cu       2.49855257      -0.01721583       6.24318929        3       0.00000000      -0.00982950      -0.00730865      -0.00366711
Cu       4.97026161      -0.01936347       6.23522993        3       0.00000000       0.01215364      -0.00687823      -0.00606789
Cu       1.25347070       2.15341743       6.23185302        3       0.00000000       0.00518654       0.01466302      -0.01873935
Cu       3.73920488       2.13827395       6.23755533        3       0.00000000      -0.00319880       0.00157402      -0.00687724
Cu       6.22494013       2.15032780       6.23772549        3       0.00000000      -0.00813693       0.00148404      -0.01376238
Cu       2.48105892       4.28100942       6.21236430        3       0.00000000       0.00775476       0.01946450      -0.00253549
Cu       4.99205342       4.28131972       6.21753367        3       0.00000000      -0.01623595       0.01765137      -0.00068243
Cu       7.47773070       4.30346690       6.22783520        3       0.00000000      -0.00329093      -0.00720625      -0.00173256
O        0.13786914       0.38219888       8.21698005        0       0.00000000       0.07244834      -0.00376775      -0.04679050
O        0.01303773      -0.83001398       9.02912546        0       0.00000000       0.04043196       0.01027120      -0.04720298
H        0.82810693      -0.74518799       9.57220765        0       0.00000000      -0.05928793       0.06431104      -0.02708984
