37
Lattice="8.075029797763122 1.117050279802324e-15 -2.7844496532153836e-16 4.03751489888156 6.993180941179185 -4.915159972894024e-16 0.0 0.0 21.671322733040526" Properties=species:S:1:pos:R:3:tags:I:1:initial_magmoms:R:1:forces:R:3 stress="0.015992246195954636 -2.9063869822075263e-06 -1.3042164023505752e-05 -2.9063869822075263e-06 0.015995602202568036 -7.5298969099039165e-06 -1.3042164023505752e-05 -7.5298969099039165e-06 0.0013289891096239376" energy=-327.70076386549437 pbc="T T T"
Ir       0.00000000      -0.00000000       0.00000000        0       0.00000000       0.00617195       0.00356338      -0.00503408
Ir       2.69167660      -0.00000000       0.00000000        0       0.00000000      -0.00003207      -0.00744646      -0.02978621
Ir       5.38335320      -0.00000000       0.00000000        0       0.00000000      -0.00626512       0.00358085      -0.00516616
Ir       1.34583830       2.33106031       0.00000000        0       0.00000000      -0.00646486       0.00369546      -0.02978621
Ir       4.03751490       2.33106031       0.00000000        0       0.00000000       0.00641761       0.00370521      -0.02976896
Ir       6.72919150       2.33106031       0.00000000        0       0.00000000      -0.00005761      -0.00396275       0.00166837
Ir       2.69167660       4.66212063       0.00000000        0       0.00000000      -0.00003145      -0.00721617      -0.00516616
Ir       5.38335320       4.66212063       0.00000000        0       0.00000000      -0.00346065       0.00193149       0.00166837
Ir       8.07502980       4.66212063       0.00000000        0       0.00000000       0.00339331       0.00195913       0.00166184
Ir       1.34583830       0.77702010       2.21702958        1       0.00000000      -0.05640890      -0.03256769       0.06199033
Ir       4.03751490       0.77702010       2.21702958        1       0.00000000       0.05585647      -0.03230651       0.06199853
Ir       6.72919150       0.77702010       2.21702958        1       0.00000000      -0.00049086      -0.01180497       0.05423876
Ir       2.69167660       3.10808042       2.21702958        1       0.00000000      -0.00005002       0.06452637       0.06199853
Ir       5.38335320       3.10808042       2.21702958        1       0.00000000      -0.02351130      -0.01357426       0.10081728
Ir       8.07502980       3.10808042       2.21702958        1       0.00000000       0.02254367      -0.01338121       0.10044698
Ir       4.03751490       5.43914073       2.21702958        1       0.00000000      -0.01046883       0.00547739       0.05423876
Ir       6.72919150       5.43914073       2.21702958        1       0.00000000      -0.00031664       0.02621399       0.10044698
Ir       9.42086810       5.43914073       2.21702958        1       0.00000000       0.00997131       0.00575694       0.05377532
Ir       0.00866515       1.55709802       4.45469662        2       0.00000000      -0.00065993      -0.00362183      -0.03405988
Ir       2.69158149       1.55398530       4.42123091        2       0.00000000      -0.00040803      -0.00023558      -0.04406520
Ir       5.37439030       1.55709406       4.45483705        2       0.00000000       0.00094043      -0.00369949      -0.03502030
Ir       1.34747569       3.87589048       4.45469771        2       0.00000000       0.00226545       0.00205598      -0.03407403
Ir       4.03567816       3.87581150       4.45483705        2       0.00000000      -0.00273364       0.00266418      -0.03502030
Ir       6.72906973       3.88503022       4.44552416        2       0.00000000      -0.00000281      -0.00000162      -0.00864395
Ir       2.69158805       6.21610971       4.43610302        2       0.00000000      -0.00017038      -0.00009837      -0.01610053
Ir       5.39033391       6.22213618       4.45469662        2       0.00000000      -0.00346656       0.00123940      -0.03405988
Ir       8.06787236       6.22218389       4.45469771        2       0.00000000       0.00291325       0.00093394      -0.03407403
Ir      -0.01984552      -0.01145782       6.65541456        3       0.00000000       0.00269144       0.00155391      -0.02883931
Ir       2.69138008      -0.03427947       6.72676338        3       0.00000000       0.00052835       0.04535145      -0.04275709
Ir       5.40281046      -0.01147122       6.65552025        3       0.00000000      -0.00327299       0.00127633      -0.02939866
Ir       1.31600315       2.34794326       6.72676338        3       0.00000000       0.03953969      -0.02221816      -0.04275709
Ir       4.06661789       2.34786294       6.72748115        3       0.00000000      -0.03624332      -0.02092509      -0.04814047
Ir       6.72874059       2.33068545       6.66354918        3       0.00000000       0.00242323       0.00642515      -0.04170698
Ir       2.69147086       4.68470672       6.65552025        3       0.00000000      -0.00053116      -0.00347266      -0.02939866
Ir       5.38280310       4.66191756       6.66354918        3       0.00000000       0.00677595      -0.00111400      -0.04170698
Ir       8.07502631       4.66211862       6.66352279        3       0.00000000      -0.00581021      -0.00335453      -0.04198702
O        2.69137431       1.55386568       8.04557370        0       0.00000000      -0.00157476      -0.00090919       0.07156809
