37
Lattice="8.075029797763122 1.117050279802324e-15 -2.7844496532153836e-16 4.03751489888156 6.993180941179185 -4.915159972894024e-16 0.0 0.0 21.671322733040526" Properties=species:S:1:pos:R:3:tags:I:1:initial_magmoms:R:1:forces:R:3 stress="0.017872848627478767 2.2937688164585327e-06 3.945440247414636e-05 2.2937688164585327e-06 0.01573625373110348 2.6843162165329522e-05 3.945440247414636e-05 2.6843162165329522e-05 0.0016376404940936715" energy=-327.36015421062854 pbc="T T T"
Ir       0.00000000      -0.00000000       0.00000000        0       0.00000000      -0.00317750       0.00301692      -0.01667650
Ir       2.69167660      -0.00000000       0.00000000        0       0.00000000       0.00324332       0.00306366      -0.01676225
Ir       5.38335320      -0.00000000       0.00000000        0       0.00000000       0.00012919      -0.00128768      -0.00666083
Ir       1.34583830       2.33106031       0.00000000        0       0.00000000       0.00008266      -0.00765759      -0.01542725
Ir       4.03751490       2.33106031       0.00000000        0       0.00000000      -0.00561389      -0.00354638      -0.00142149
Ir       6.72919150       2.33106031       0.00000000        0       0.00000000       0.00570607      -0.00354369      -0.00145124
Ir       2.69167660       4.66212063       0.00000000        0       0.00000000       0.00253005       0.00458060       0.00843626
Ir       5.38335320       4.66212063       0.00000000        0       0.00000000       0.00008261       0.00049311      -0.01662883
Ir       8.07502980       4.66212063       0.00000000        0       0.00000000      -0.00231650       0.00450529       0.00876032
Ir       1.34583830       0.77702010       2.21702958        1       0.00000000       0.00020864      -0.02567806       0.06076169
Ir       4.03751490       0.77702010       2.21702958        1       0.00000000      -0.02837706      -0.03750678       0.10058049
Ir       6.72919150       0.77702010       2.21702958        1       0.00000000       0.03007072      -0.03820423       0.10111783
Ir       2.69167660       3.10808042       2.21702958        1       0.00000000      -0.03354428       0.00881286       0.03764073
Ir       5.38335320       3.10808042       2.21702958        1       0.00000000       0.00051251      -0.01424822       0.00362764
Ir       8.07502980       3.10808042       2.21702958        1       0.00000000       0.03444279       0.00850063       0.03815664
Ir       4.03751490       5.43914073       2.21702958        1       0.00000000      -0.04954452       0.02507334       0.07368889
Ir       6.72919150       5.43914073       2.21702958        1       0.00000000       0.05034330       0.02459133       0.07376798
Ir       9.42086810       5.43914073       2.21702958        1       0.00000000       0.00130660       0.03036487       0.06792167
Ir       0.00681836       1.54390463       4.45212283        2       0.00000000      -0.00246413       0.00472212      -0.03309050
Ir       2.68520630       1.54393950       4.45202534        2       0.00000000       0.00364077       0.00395069      -0.03232731
Ir       5.38356636       1.54868398       4.43928838        2       0.00000000       0.00052380      -0.00011138       0.01195216
Ir       1.34597392       3.89256992       4.43867284        2       0.00000000       0.00075495      -0.01010971      -0.00714084
Ir       4.03534959       3.88436524       4.43710169        2       0.00000000       0.00177638       0.00795242      -0.00500563
Ir       6.73159517       3.88430904       4.43714462        2       0.00000000      -0.00003038       0.00813281      -0.00548657
Ir       2.70373226       6.22569519       4.46741339        2       0.00000000       0.00026251       0.00247866      -0.01754307
Ir       5.38355530       6.21180981       4.44090815        2       0.00000000       0.00144953       0.00497584      -0.05133512
Ir       8.06369672       6.22566022       4.46696267        2       0.00000000      -0.00117517       0.00261171      -0.01420739
Ir      -0.00135995       0.00580440       6.78723063        3       0.00000000      -0.03904297       0.00475192      -0.08736170
Ir       2.69530747       0.00589843       6.78541256        3       0.00000000       0.03575770       0.00456979      -0.08335107
Ir       5.38458721       0.00493134       6.67620689        3       0.00000000      -0.00600296       0.00073402      -0.03197921
Ir       1.34616536       2.39136295       6.63771800        3       0.00000000       0.00139947       0.02506067       0.00563448
Ir       4.03863449       2.33223378       6.65602293        3       0.00000000       0.01890306       0.01155258      -0.01611926
Ir       6.72908162       2.33191897       6.65608135        3       0.00000000      -0.01889639       0.01526478      -0.01571558
Ir       2.69550106       4.66362724       6.66018946        3       0.00000000      -0.02126561      -0.00208953      -0.02388650
Ir       5.38365800       4.60287395       6.63789410        3       0.00000000       0.00086469      -0.02701053       0.01213089
Ir       8.07201572       4.66344339       6.65999196        3       0.00000000       0.02283234       0.00079062      -0.02355803
O        1.34879882      -0.01319203       8.26139402        0       0.00000000      -0.00537232      -0.03955747      -0.08104153
