37
Lattice="8.075029797763122 1.117050279802324e-15 -2.7844496532153836e-16 4.03751489888156 6.993180941179185 -4.915159972894024e-16 0.0 0.0 21.671322733040526" Properties=species:S:1:pos:R:3:tags:I:1:initial_magmoms:R:1:forces:R:3 stress="0.01568853719605244 -8.71569724582044e-07 -5.6764264462759405e-06 -8.71569724582044e-07 0.015689543598083038 -3.277286336902279e-06 -5.6764264462759405e-06 -3.277286336902279e-06 0.0016032712823393722" energy=-327.6358936289793 pbc="T T T"
Ir       0.00000000      -0.00000000       0.00000000        0       0.00000000      -0.00100107      -0.00057797      -0.02183908
Ir       2.69167660      -0.00000000       0.00000000        0       0.00000000       0.00098873      -0.00059528      -0.02182908
Ir       5.38335320      -0.00000000       0.00000000        0       0.00000000      -0.00003778      -0.00122497       0.00730325
Ir       1.34583830       2.33106031       0.00000000        0       0.00000000      -0.00002117       0.00115391      -0.02182908
Ir       4.03751490       2.33106031       0.00000000        0       0.00000000      -0.00473078      -0.00273131      -0.01291083
Ir       6.72919150       2.33106031       0.00000000        0       0.00000000       0.00470652      -0.00273688      -0.01289709
Ir       2.69167660       4.66212063       0.00000000        0       0.00000000      -0.00107974       0.00057977       0.00730325
Ir       5.38335320       4.66212063       0.00000000        0       0.00000000      -0.00001695       0.00544441      -0.01289709
Ir       8.07502980       4.66212063       0.00000000        0       0.00000000       0.00103478       0.00059743       0.00723697
Ir       1.34583830       0.77702010       2.21702958        1       0.00000000      -0.00006230      -0.00003597       0.08648736
Ir       4.03751490       0.77702010       2.21702958        1       0.00000000      -0.00218888      -0.07947266       0.08488531
Ir       6.72919150       0.77702010       2.21702958        1       0.00000000       0.00176677      -0.07934641       0.08475067
Ir       2.69167660       3.10808042       2.21702958        1       0.00000000      -0.06991978       0.03784071       0.08488531
Ir       5.38335320       3.10808042       2.21702958        1       0.00000000      -0.00013024      -0.00007520      -0.00015956
Ir       8.07502980       3.10808042       2.21702958        1       0.00000000       0.06963814       0.03790811       0.08477125
Ir       4.03751490       5.43914073       2.21702958        1       0.00000000      -0.06783262       0.04120328       0.08475067
Ir       6.72919150       5.43914073       2.21702958        1       0.00000000       0.06764846       0.04135434       0.08477125
Ir       9.42086810       5.43914073       2.21702958        1       0.00000000      -0.00034888      -0.00020143       0.12745672
Ir       0.00443782       1.55142778       4.44019736        2       0.00000000      -0.00038049      -0.00008481      -0.05350704
Ir       2.68715697       1.55143080       4.44020773        2       0.00000000       0.00017658       0.00010195      -0.05340933
Ir       5.38329889       1.55163286       4.43657961        2       0.00000000       0.00005951      -0.00358208      -0.00541248
Ir       1.34578324       3.87532413       4.46747577        2       0.00000000      -0.00002353      -0.00257873      -0.04831801
Ir       4.03540292       3.88625716       4.43657961        2       0.00000000      -0.00307242       0.00184257      -0.00541248
Ir       6.73123271       3.88627902       4.43656844        2       0.00000000       0.00275371       0.00158985      -0.00540275
Ir       2.69998685       6.22095876       4.46733969        2       0.00000000       0.00260287       0.00150277      -0.04720566
Ir       5.38330967       6.22131031       4.44019736        2       0.00000000      -0.00026369      -0.00028711      -0.05350704
Ir       8.06653567       6.22100135       4.46747577        2       0.00000000      -0.00224501       0.00126898      -0.04831801
Ir      -0.04003608      -0.02311484       6.73015036        3       0.00000000       0.01690645       0.00976094      -0.07336189
Ir       2.73129333      -0.02303184       6.73058180        3       0.00000000      -0.01470548       0.00855568      -0.07655641
Ir       5.38313254       0.00964715       6.67055669        3       0.00000000       0.00106871      -0.03549614      -0.05738508
Ir       1.34570050       2.37688533       6.73058180        3       0.00000000       0.00005670      -0.01701316      -0.07655641
Ir       4.05699029       2.34230444       6.64808275        3       0.00000000       0.00579613       0.00334640      -0.00085709
Ir       6.70953147       2.34232089       6.64804176        3       0.00000000      -0.00595199       0.00299092      -0.00059017
Ir       2.69992095       4.65710595       6.67055669        3       0.00000000      -0.03020621       0.01867360      -0.05738508
Ir       5.38327513       4.63946426       6.64804176        3       0.00000000      -0.00038578      -0.00665004      -0.00059017
Ir       8.06653826       4.65721803       6.67057925        3       0.00000000       0.03049306       0.01760518      -0.05725701
O        1.34572604       0.77695529       8.04188589        0       0.00000000      -0.00109232      -0.00063065       0.08079188
