37
Lattice="8.075029797763122 1.117050279802324e-15 -2.7844496532153836e-16 4.03751489888156 6.993180941179185 -4.915159972894024e-16 0.0 0.0 21.671322733040526" Properties=species:S:1:pos:R:3:tags:I:1:initial_magmoms:R:1:forces:R:3 stress="0.016394664182748535 5.603796649884796e-17 1.2006428205853504e-16 5.603796649884796e-17 0.016394664182749062 -1.1845428671185235e-16 1.2006428205853504e-16 -1.1845428671185235e-16 -0.0017572643604516405" energy=-327.05888513281747 pbc="T T T"
Ir       0.00000000      -0.00000000       0.00000000        0       0.00000000       0.00000000      -0.00000000      -0.02457500
Ir       2.69167660      -0.00000000       0.00000000        0       0.00000000      -0.00632906      -0.00182440      -0.03085443
Ir       5.38335320      -0.00000000       0.00000000        0       0.00000000       0.00632906      -0.00182440      -0.03085443
Ir       1.34583830       2.33106031       0.00000000        0       0.00000000      -0.00474451      -0.00456893      -0.03085443
Ir       4.03751490       2.33106031       0.00000000        0       0.00000000       0.00000000      -0.00000000      -0.02170510
Ir       6.72919150       2.33106031       0.00000000        0       0.00000000       0.00474451      -0.00456893      -0.03085443
Ir       2.69167660       4.66212063       0.00000000        0       0.00000000       0.00158456       0.00639333      -0.03085443
Ir       5.38335320       4.66212063       0.00000000        0       0.00000000      -0.00158456       0.00639333      -0.03085443
Ir       8.07502980       4.66212063       0.00000000        0       0.00000000       0.00000000       0.00000000      -0.00088896
Ir       1.34583830       0.77702010       2.21702958        1       0.00000000      -0.06822882      -0.03939193      -0.01112013
Ir       4.03751490       0.77702010       2.21702958        1       0.00000000       0.00000000      -0.02817306      -0.07253331
Ir       6.72919150       0.77702010       2.21702958        1       0.00000000       0.06822882      -0.03939193      -0.01112013
Ir       2.69167660       3.10808042       2.21702958        1       0.00000000      -0.02439859       0.01408653      -0.07253331
Ir       5.38335320       3.10808042       2.21702958        1       0.00000000       0.02439859       0.01408653      -0.07253331
Ir       8.07502980       3.10808042       2.21702958        1       0.00000000       0.00000000      -0.01904155       0.01211450
Ir       4.03751490       5.43914073       2.21702958        1       0.00000000       0.00000000       0.07878386      -0.01112013
Ir       6.72919150       5.43914073       2.21702958        1       0.00000000      -0.01649046       0.00952077       0.01211450
Ir       9.42086810       5.43914073       2.21702958        1       0.00000000       0.01649046       0.00952077       0.01211450
Ir       0.00000000       1.54161656       4.46451101        2       0.00000000       0.00000000       0.00478288      -0.00687641
Ir       2.68809059       1.55196983       4.42663598        2       0.00000000       0.00000643       0.00000371       0.02528408
Ir       5.38693920       1.55196983       4.42663598        2       0.00000000      -0.00000643       0.00000371       0.02528408
Ir       1.34640754       3.88477187       4.43526514        2       0.00000000       0.00130164      -0.00075150       0.02744653
Ir       4.03751490       3.88924128       4.42663598        2       0.00000000       0.00000000      -0.00000742       0.02528408
Ir       6.72862226       3.88477187       4.43526514        2       0.00000000      -0.00130164      -0.00075150       0.02744653
Ir       2.70243579       6.22237266       4.46451101        2       0.00000000      -0.00414210      -0.00239144      -0.00687641
Ir       5.37259400       6.22237266       4.46451101        2       0.00000000       0.00414210      -0.00239144      -0.00687641
Ir       8.07502980       6.21681814       4.43526514        2       0.00000000      -0.00000000       0.00150300       0.02744653
Ir       0.00000000      -0.00000000       6.90758267        3       0.00000000       0.00000000      -0.00000000       0.07115027
Ir       2.70799589       0.00210842       6.64350579        3       0.00000000      -0.00922251      -0.00332897       0.02658118
Ir       5.36703390       0.00210842       6.64350579        3       0.00000000       0.00922251      -0.00332897       0.02658118
Ir       1.35582389       2.34413903       6.64350579        3       0.00000000      -0.00749423      -0.00632245       0.02658118
Ir       4.03751490       2.33106031       6.63931038        3       0.00000000      -0.00000000      -0.00000000       0.02574433
Ir       6.71920591       2.34413903       6.64350579        3       0.00000000       0.00749423      -0.00632245       0.02658118
Ir       2.68534289       4.64693349       6.64350579        3       0.00000000       0.00172829       0.00965142       0.02658118
Ir       5.38968690       4.64693349       6.64350579        3       0.00000000      -0.00172829       0.00965142       0.02658118
Ir       8.07502980       4.66212063       6.64344312        3       0.00000000       0.00000000      -0.00000000       0.03066066
O        0.00000000      -0.00000000       8.70536024        0       0.00000000      -0.00000000      -0.00000000       0.02230749
