2
Lattice="15.0 0.0 0.0 0.0 15.0 0.0 0.0 0.0 15.0" Properties=species:S:1:pos:R:3:initial_magmoms:R:1:forces:R:3 energy=-6.772391936670102 free_energy=-6.772391936670102 stress="0.0 0.0 0.0 0.0 0.0 0.0 0.0 0.0 5.865720285108818e-06" pbc="T T T"
H        7.50000000       7.50000000       7.12491630       0.00010000       0.00000000       0.00000000       0.02638985
H        7.50000000       7.50000000       7.87508370       0.00010000       0.00000000       0.00000000      -0.02638985
