38
Lattice="8.51545404474967 -5.95020126642259e-16 6.045666078066302e-16 4.2577270223748345 7.374599527512166 1.4060493190009737e-15 0.0 0.0 22.098036274269273" Properties=species:S:1:pos:R:3:tags:I:1:initial_magmoms:R:1:forces:R:3 stress="-0.0018565195653878225 6.013702029394069e-06 1.1599357585655492e-05 6.013702029394069e-06 -0.0018634635903588496 6.696892224496507e-06 1.1599357585655492e-05 6.696892224496507e-06 -0.00011345335375614884" energy=-118.1059897844165 pbc="T T T"
Ag      -0.00000000      -0.00000000       0.00000000        0       0.00000000       0.00012818       0.00007400      -0.11332734
Ag       2.83848468      -0.00000000       0.00000000        0       0.00000000      -0.00012603       0.00007269      -0.11331201
Ag       5.67696936      -0.00000000       0.00000000        0       0.00000000      -0.00000056      -0.00110764      -0.12004704
Ag       1.41924234       2.45819984       0.00000000        0       0.00000000      -0.00000006      -0.00014549      -0.11331201
Ag       4.25772702       2.45819984       0.00000000        0       0.00000000      -0.00084744      -0.00048927      -0.11748391
Ag       7.09621170       2.45819984       0.00000000        0       0.00000000       0.00084816      -0.00049926      -0.11748533
Ag       2.83848468       4.91639969       0.00000000        0       0.00000000      -0.00095953       0.00055334      -0.12004704
Ag       5.67696936       4.91639969       0.00000000        0       0.00000000      -0.00000829       0.00098415      -0.11748533
Ag       8.51545404       4.91639969       0.00000000        0       0.00000000       0.00096461       0.00055692      -0.12003140
Ag       1.41924234       0.81939995       2.36351683        1       0.00000000      -0.00003578      -0.00002066       0.22546369
Ag       4.25772702       0.81939995       2.36351683        1       0.00000000      -0.04101369      -0.00945415       0.16013932
Ag       7.09621170       0.81939995       2.36351683        1       0.00000000       0.04105666      -0.00922418       0.16000570
Ag       2.83848468       3.27759979       2.36351683        1       0.00000000      -0.02869438      -0.03079183       0.16013932
Ag       5.67696936       3.27759979       2.36351683        1       0.00000000      -0.00002879      -0.00001662       0.06585320
Ag       8.51545404       3.27759979       2.36351683        1       0.00000000       0.02879118      -0.03084696       0.16024855
Ag       4.25772702       5.73579963       2.36351683        1       0.00000000       0.01253996       0.04016820       0.16000570
Ag       7.09621170       5.73579963       2.36351683        1       0.00000000      -0.01231866       0.04035737       0.16024855
Ag       9.93469639       5.73579963       2.36351683        1       0.00000000      -0.00011341      -0.00006548       0.23595966
Ag       0.01174606       1.63206111       4.78221584        2       0.00000000      -0.00289149       0.00197916      -0.01760130
Ag       2.82679862       1.63205294       4.78215825        2       0.00000000       0.00324897       0.00187580      -0.01828867
Ag       5.67697137       1.63718717       4.71528352        2       0.00000000       0.00013187       0.00031520      -0.00119176
Ag       1.41931589       4.08006060       4.75573083        2       0.00000000       0.00024589       0.00485612      -0.01588387
Ag       4.25633136       4.09780783       4.71528352        2       0.00000000       0.00033891      -0.00004339      -0.00119176
Ag       7.09762458       4.09781546       4.71521209        2       0.00000000       0.00004617       0.00002665      -0.00110374
Ag       2.85333153       6.56377141       4.75548159        2       0.00000000      -0.00344463      -0.00198876      -0.01517216
Ag       5.67700643       6.56874136       4.78221584        2       0.00000000       0.00026826      -0.00349369      -0.01760130
Ag       8.50082110       6.56373284       4.75573083        2       0.00000000       0.00432847      -0.00221511      -0.01588387
Ag      -0.07094260      -0.04095873       7.25135127        3       0.00000000       0.02532803       0.01462314      -0.05155805
Ag       2.91206803      -0.04196413       7.25072427        3       0.00000000      -0.02678674       0.01621715      -0.05392591
Ag       5.67812070       0.00513743       7.10971595        3       0.00000000      -0.00045616      -0.00268291       0.00150471
Ag       1.41969202       2.54290696       7.25072427        3       0.00000000       0.00065110      -0.03130657      -0.05392591
Ag       4.27282927       2.46691913       7.10898395        3       0.00000000       0.00635335       0.00366811       0.00429236
Ag       7.08153258       2.46694926       7.10890844        3       0.00000000      -0.00507986       0.00367093       0.00440605
Ag       2.84350949       4.91482806       7.10971595        3       0.00000000      -0.00255155       0.00094641       0.00150471
Ag       5.67720701       4.89931248       7.10890844        3       0.00000000       0.00063919      -0.00623475       0.00440605
Ag       8.51137758       4.91404613       7.10961597        3       0.00000000       0.00344450       0.00198868       0.00154098
O        1.42319001       0.82167913       8.74031211        0       0.00000000      -0.00064723      -0.00037368      -0.09280177
H        1.43021098       0.82573270       9.71563521        0       0.00000000      -0.00334918      -0.00193365      -0.09705706
