38
Lattice="8.51545404474967 -5.95020126642259e-16 6.045666078066302e-16 4.2577270223748345 7.374599527512166 1.4060493190009737e-15 0.0 0.0 22.098036274269273" Properties=species:S:1:pos:R:3:tags:I:1:initial_magmoms:R:1:forces:R:3 stress="-0.0016131707795537676 -1.9591604165198192e-17 5.304736056996524e-18 -1.9591604165198192e-17 -0.0016131707795536288 -5.605541506971099e-17 5.304736056996524e-18 -5.605541506971099e-17 -0.0027467496405558373" energy=-117.33300621844054 pbc="T T T"
Ag      -0.00000000      -0.00000000       0.00000000        0       0.00000000      -0.00000000      -0.00000000      -0.11623843
Ag       2.83848468      -0.00000000       0.00000000        0       0.00000000       0.00008297      -0.00043250      -0.11657519
Ag       5.67696936      -0.00000000       0.00000000        0       0.00000000      -0.00008297      -0.00043250      -0.11657519
Ag       1.41924234       2.45819984       0.00000000        0       0.00000000      -0.00033307       0.00028810      -0.11657519
Ag       4.25772702       2.45819984       0.00000000        0       0.00000000      -0.00000000       0.00000000      -0.11578373
Ag       7.09621170       2.45819984       0.00000000        0       0.00000000       0.00033307       0.00028810      -0.11657519
Ag       2.83848468       4.91639969       0.00000000        0       0.00000000      -0.00041604       0.00014439      -0.11657519
Ag       5.67696936       4.91639969       0.00000000        0       0.00000000       0.00041604       0.00014439      -0.11657519
Ag       8.51545404       4.91639969       0.00000000        0       0.00000000      -0.00000000       0.00000000      -0.11737613
Ag       1.41924234       0.81939995       2.36351683        1       0.00000000       0.00444470       0.00256615       0.06858612
Ag       4.25772702       0.81939995       2.36351683        1       0.00000000      -0.00000000       0.00081111       0.08590776
Ag       7.09621170       0.81939995       2.36351683        1       0.00000000      -0.00444470       0.00256615       0.06858612
Ag       2.83848468       3.27759979       2.36351683        1       0.00000000       0.00070244      -0.00040555       0.08590776
Ag       5.67696936       3.27759979       2.36351683        1       0.00000000      -0.00070244      -0.00040555       0.08590776
Ag       8.51545404       3.27759979       2.36351683        1       0.00000000      -0.00000000       0.00042474       0.07943355
Ag       4.25772702       5.73579963       2.36351683        1       0.00000000      -0.00000000      -0.00513230       0.06858612
Ag       7.09621170       5.73579963       2.36351683        1       0.00000000       0.00036783      -0.00021237       0.07943355
Ag       9.93469639       5.73579963       2.36351683        1       0.00000000      -0.00036783      -0.00021237       0.07943355
Ag      -0.00000000       1.64004076       4.72288946        2       0.00000000       0.00000000       0.01734288      -0.00257379
Ag       2.83752253       1.63824440       4.72486262        2       0.00000000      -0.00126491      -0.00073029       0.01654213
Ag       5.67793151       1.63824440       4.72486262        2       0.00000000       0.00126491      -0.00073029       0.01654213
Ag       1.41894859       4.09716934       4.72299667        2       0.00000000       0.00086352      -0.00049855       0.00753838
Ag       4.25772702       4.09811073       4.72486262        2       0.00000000       0.00000000       0.00146059       0.01654213
Ag       7.09650546       4.09716934       4.72299667        2       0.00000000      -0.00086352      -0.00049855       0.00753838
Ag       2.83741006       6.55457915       4.72288946        2       0.00000000      -0.01501937      -0.00867144      -0.00257379
Ag       5.67804398       6.55457915       4.72288946        2       0.00000000       0.01501937      -0.00867144      -0.00257379
Ag       8.51545404       6.55486038       4.72299667        2       0.00000000      -0.00000000       0.00099711       0.00753838
Ag      -0.00000000      -0.00000000       7.02664645        3       0.00000000       0.00000000      -0.00000000       0.09699365
Ag       2.85365105       0.00031379       7.11715426        3       0.00000000      -0.01117519      -0.00077508       0.03086715
Ag       5.66180300       0.00031379       7.11715426        3       0.00000000       0.01117519      -0.00077508       0.03086715
Ag       1.42709728       2.47117740       7.11715426        3       0.00000000      -0.00625883      -0.00929046       0.03086715
Ag       4.25772702       2.45819984       7.11162767        3       0.00000000      -0.00000000       0.00000000       0.01464336
Ag       7.08835677       2.47117740       7.11715426        3       0.00000000       0.00625883      -0.00929046       0.03086715
Ag       2.83117325       4.90310833       7.11715426        3       0.00000000       0.00491635       0.01006554       0.03086715
Ag       5.68428079       4.90310833       7.11715426        3       0.00000000      -0.00491635       0.01006554       0.03086715
Ag       8.51545404       4.91639969       7.11122228        3       0.00000000      -0.00000000       0.00000000       0.01229243
O        0.00000000       0.00000000       9.14909985        0       0.00000000       0.00000000       0.00000000      -0.00537682
H       -0.00000000      -0.00000000      10.12510412        0       0.00000000      -0.00000000      -0.00000000      -0.02120852
