38
Lattice="8.51545404474967 -5.95020126642259e-16 6.045666078066302e-16 4.2577270223748345 7.374599527512166 1.4060493190009737e-15 0.0 0.0 22.098036274269273" Properties=species:S:1:pos:R:3:tags:I:1:initial_magmoms:R:1:forces:R:3 stress="-0.0025123812398460954 6.929102461113514e-06 2.923056606347052e-05 6.929102461113514e-06 -0.0012319324233985053 -3.1267658915415026e-05 2.923056606347052e-05 -3.1267658915415026e-05 -0.0007959160598655594" energy=-117.92359752575457 pbc="T T T"
Ag      -0.00000000      -0.00000000       0.00000000        0       0.00000000       0.00019180      -0.00036086      -0.11298844
Ag       2.83848468      -0.00000000       0.00000000        0       0.00000000      -0.00019743      -0.00035969      -0.11303603
Ag       5.67696936      -0.00000000       0.00000000        0       0.00000000       0.00000143      -0.00119900      -0.11900934
Ag       1.41924234       2.45819984       0.00000000        0       0.00000000      -0.00000183       0.00030150      -0.11594722
Ag       4.25772702       2.45819984       0.00000000        0       0.00000000      -0.00090966       0.00017108      -0.11802113
Ag       7.09621170       2.45819984       0.00000000        0       0.00000000       0.00091756       0.00017235      -0.11791414
Ag       2.83848468       4.91639969       0.00000000        0       0.00000000      -0.00090428       0.00017887      -0.12000937
Ag       5.67696936       4.91639969       0.00000000        0       0.00000000      -0.00000030       0.00085151      -0.11428051
Ag       8.51545404       4.91639969       0.00000000        0       0.00000000       0.00089933       0.00016997      -0.12005934
Ag       1.41924234       0.81939995       2.36351683        1       0.00000000      -0.00065171      -0.01346643       0.20232023
Ag       4.25772702       0.81939995       2.36351683        1       0.00000000      -0.03127971      -0.01025898       0.13254166
Ag       7.09621170       0.81939995       2.36351683        1       0.00000000       0.03234934      -0.01058541       0.13476465
Ag       2.83848468       3.27759979       2.36351683        1       0.00000000       0.00632255      -0.02318255       0.13640065
Ag       5.67696936       3.27759979       2.36351683        1       0.00000000       0.00031330       0.01360485       0.08939175
Ag       8.51545404       3.27759979       2.36351683        1       0.00000000      -0.00610654      -0.02402034       0.13797053
Ag       4.25772702       5.73579963       2.36351683        1       0.00000000       0.02330475       0.02943733       0.16511019
Ag       7.09621170       5.73579963       2.36351683        1       0.00000000      -0.02327271       0.02903504       0.16490701
Ag       9.93469639       5.73579963       2.36351683        1       0.00000000       0.00116047       0.01865801       0.16596429
Ag       0.00363185       1.63312090       4.76233874        2       0.00000000      -0.00752256      -0.00273164      -0.01613119
Ag       2.83552474       1.63336322       4.76112274        2       0.00000000       0.00881888      -0.00245971      -0.01539807
Ag       5.67723561       1.64039663       4.71332897        2       0.00000000       0.00129724      -0.00103241       0.00574109
Ag       1.41957737       4.09051610       4.72355465        2       0.00000000       0.00098716      -0.01844753      -0.00176209
Ag       4.26186964       4.10389468       4.72965496        2       0.00000000       0.00374053       0.00808871      -0.00159041
Ag       7.09267393       4.10387297       4.72978834        2       0.00000000      -0.00226211       0.00818094      -0.00159813
Ag       2.84950861       6.55860984       4.74832429        2       0.00000000       0.00842861       0.00200050       0.00339302
Ag       5.67732715       6.56741332       4.78844599        2       0.00000000      -0.00019917      -0.00021895      -0.08471720
Ag       8.50645940       6.55836663       4.74723485        2       0.00000000      -0.00977980       0.00195351       0.00377436
Ag      -0.09498881      -0.01124604       7.20419605        3       0.00000000      -0.08003863      -0.01559412      -0.04650621
Ag       2.93714917      -0.01131255       7.19786469        3       0.00000000       0.08275767      -0.01539284      -0.04789904
Ag       5.67874441       0.00394135       7.10268327        3       0.00000000       0.00272082      -0.01350950      -0.01315541
Ag       1.42101489       2.43738606       7.15971997        3       0.00000000      -0.00080312       0.03724612       0.01897388
Ag       4.27733367       2.48325143       7.11344069        3       0.00000000      -0.00944473      -0.02211589       0.00356266
Ag       7.07976033       2.48312618       7.11370152        3       0.00000000       0.00958915      -0.02320837       0.00395146
Ag       2.82237665       4.88180778       7.11372973        3       0.00000000       0.00413074       0.01780862      -0.00094852
Ag       5.67857531       4.92733401       7.15079762        3       0.00000000      -0.00074009      -0.04745255       0.01505364
Ag       8.53478159       4.88163577       7.11365057        3       0.00000000      -0.00410827       0.01681842      -0.00132736
O        1.42755924       0.03894963       8.80638395        0       0.00000000      -0.00433078       0.08662196      -0.04654437
H        1.44108579      -0.01226263       9.77956998        0       0.00000000      -0.00537790      -0.02570251      -0.05497755
