38
Lattice="8.51545404474967 -5.95020126642259e-16 6.045666078066302e-16 4.2577270223748345 7.374599527512166 1.4060493190009737e-15 0.0 0.0 22.098036274269273" Properties=species:S:1:pos:R:3:tags:I:1:initial_magmoms:R:1:forces:R:3 stress="-0.0017793090350179414 -3.178152049091741e-06 1.9399427202342632e-05 -3.178152049091741e-06 -0.0017756392211357719 1.1200264517382844e-05 1.9399427202342632e-05 1.1200264517382844e-05 -0.00020768927831739045" energy=-118.07624253249351 pbc="T T T"
Ag      -0.00000000      -0.00000000       0.00000000        0       0.00000000      -0.00002042      -0.00001179      -0.11971901
Ag       2.83848468      -0.00000000       0.00000000        0       0.00000000      -0.00001073       0.00061660      -0.11204166
Ag       5.67696936      -0.00000000       0.00000000        0       0.00000000       0.00002633      -0.00001034      -0.11965556
Ag       1.41924234       2.45819984       0.00000000        0       0.00000000       0.00052863      -0.00031759      -0.11204166
Ag       4.25772702       2.45819984       0.00000000        0       0.00000000      -0.00053378      -0.00030818      -0.11201115
Ag       7.09621170       2.45819984       0.00000000        0       0.00000000       0.00000675      -0.00150299      -0.11928607
Ag       2.83848468       4.91639969       0.00000000        0       0.00000000       0.00000421       0.00002797      -0.11965556
Ag       5.67696936       4.91639969       0.00000000        0       0.00000000      -0.00129825       0.00075734      -0.11928607
Ag       8.51545404       4.91639969       0.00000000        0       0.00000000       0.00129453       0.00074740      -0.11926654
Ag       1.41924234       0.81939995       2.36351683        1       0.00000000       0.02324779       0.01342212       0.20073732
Ag       4.25772702       0.81939995       2.36351683        1       0.00000000      -0.02275790       0.01346574       0.20174888
Ag       7.09621170       0.81939995       2.36351683        1       0.00000000      -0.00022203       0.03854807       0.15923028
Ag       2.83848468       3.27759979       2.36351683        1       0.00000000       0.00028272      -0.02644179       0.20174888
Ag       5.67696936       3.27759979       2.36351683        1       0.00000000      -0.03181581      -0.01836887       0.12876411
Ag       8.51545404       3.27759979       2.36351683        1       0.00000000       0.03167161      -0.01808985       0.12810224
Ag       4.25772702       5.73579963       2.36351683        1       0.00000000       0.03327260      -0.01946632       0.15923028
Ag       7.09621170       5.73579963       2.36351683        1       0.00000000       0.00016954       0.03647334       0.12810224
Ag       9.93469639       5.73579963       2.36351683        1       0.00000000      -0.03324083      -0.01919160       0.15902376
Ag       0.01425347       1.64340746       4.75532569        2       0.00000000      -0.00278609      -0.00087440      -0.01518369
Ag       2.83863593       1.63888722       4.80294534        2       0.00000000       0.00031067       0.00017937      -0.01074959
Ag       5.66312942       1.64340498       4.75584262        2       0.00000000       0.00404623      -0.00074300      -0.01640992
Ag       1.42237868       4.08263278       4.75554236        2       0.00000000      -0.00056607       0.00339813      -0.01510062
Ag       4.25479517       4.08271145       4.75584262        2       0.00000000       0.00137966       0.00387564      -0.01640992
Ag       7.09628031       4.09703935       4.70710758        2       0.00000000       0.00027273       0.00015746       0.00350067
Ag       2.83854854       6.55523645       4.70910307        2       0.00000000       0.00003309       0.00001910       0.00258265
Ag       5.68808636       6.56523966       4.75532569        2       0.00000000      -0.00215030      -0.00197563      -0.01518369
Ag       8.50458006       6.56509921       4.75554236        2       0.00000000       0.00265983      -0.00218929      -0.01510062
Ag      -0.01522849      -0.00879217       7.11296741        3       0.00000000      -0.00264453      -0.00152682       0.00149042
Ag       2.83918912      -0.07628331       7.24785720        3       0.00000000       0.00117658       0.03078133      -0.04996525
Ag       5.69289174      -0.00877248       7.11329721        3       0.00000000       0.00523777      -0.00140926       0.00150544
Ag       1.35353127       2.49695156       7.24785720        3       0.00000000       0.02724571      -0.01437172      -0.04996525
Ag       4.32837643       2.49898930       7.24641621        3       0.00000000      -0.03015840      -0.01741196      -0.05460182
Ag       7.09838749       2.46117909       7.10690033        3       0.00000000      -0.00083040      -0.00014342       0.00194524
Ag       2.83884868       4.93457511       7.11329721        3       0.00000000       0.00139843       0.00524067       0.00150544
Ag       5.68063736       4.91679435       7.10690033        3       0.00000000      -0.00053941      -0.00064744       0.00194524
Ag       8.51372961       4.91540408       7.10719068        3       0.00000000       0.00196870       0.00113663       0.00197888
O        2.84644108       1.64339352       8.74836224        0       0.00000000      -0.00108667      -0.00062739      -0.08444687
H        2.86074843       1.65165387       9.72341140        0       0.00000000      -0.00557249      -0.00321728      -0.08706146
