38
Lattice="8.530808755166998 -2.5386237190646034e-15 -3.9793378221843725e-15 4.2654043775835015 7.387897096801325 -2.397330953518344e-16 0.0 0.0 22.28977243571786" Properties=species:S:1:pos:R:3:tags:I:1:initial_magmoms:R:1:forces:R:3 stress="0.003312905961696212 -4.876902716241555e-18 -3.4539866478750676e-17 -4.876902716241555e-18 0.0033129059616963438 1.7105097806932849e-18 -3.4539866478750676e-17 1.7105097806932849e-18 -0.0035590511556647803" energy=-137.21798880040916 pbc="T T T"
Au       0.00000000       0.00000000       0.00000000        0       0.00000000       0.00000000       0.00000000      -0.15680990
Au       2.84360292       0.00000000       0.00000000        0       0.00000000       0.00082943      -0.00114990      -0.15980263
Au       5.68720584       0.00000000       0.00000000        0       0.00000000      -0.00082943      -0.00114990      -0.15980263
Au       1.42180146       2.46263237       0.00000000        0       0.00000000      -0.00058113       0.00129325      -0.15980263
Au       4.26540438       2.46263237       0.00000000        0       0.00000000      -0.00000000       0.00000000      -0.15904036
Au       7.10900730       2.46263237       0.00000000        0       0.00000000       0.00058113       0.00129325      -0.15980263
Au       2.84360292       4.92526473       0.00000000        0       0.00000000      -0.00141055      -0.00014335      -0.15980263
Au       5.68720584       4.92526473       0.00000000        0       0.00000000       0.00141055      -0.00014335      -0.15980263
Au       8.53080876       4.92526473       0.00000000        0       0.00000000      -0.00000000      -0.00000000      -0.16101385
Au       1.42180146       0.82087746       2.43012302        1       0.00000000      -0.00425593      -0.00245716       0.11911322
Au       4.26540438       0.82087746       2.43012302        1       0.00000000       0.00000000       0.00467577       0.11643896
Au       7.10900730       0.82087746       2.43012302        1       0.00000000       0.00425593      -0.00245716       0.11911322
Au       2.84360292       3.28350982       2.43012302        1       0.00000000       0.00404934      -0.00233789       0.11643896
Au       5.68720584       3.28350982       2.43012302        1       0.00000000      -0.00404934      -0.00233789       0.11643896
Au       8.53080876       3.28350982       2.43012302        1       0.00000000      -0.00000000      -0.03043236       0.12696938
Au       4.26540438       5.74614219       2.43012302        1       0.00000000       0.00000000       0.00491432       0.11911322
Au       7.10900730       5.74614219       2.43012302        1       0.00000000      -0.02635519       0.01521618       0.12696938
Au       9.95261021       5.74614219       2.43012302        1       0.00000000       0.02635519       0.01521618       0.12696938
Au       0.00000000       1.64185428       4.85076310        2       0.00000000       0.00000000       0.00690209       0.02385324
Au       2.84424336       1.64212467       4.84617009        2       0.00000000       0.00357629       0.00206477       0.00965595
Au       5.68656540       1.64212467       4.84617009        2       0.00000000      -0.00357629       0.00206477       0.00965595
Au       1.42009963       4.10536983       4.83978696        2       0.00000000      -0.00345244       0.00199327       0.01633114
Au       4.26540438       4.10364776       4.84617009        2       0.00000000       0.00000000      -0.00412954       0.00965595
Au       7.11070912       4.10536983       4.83978696        2       0.00000000       0.00345244       0.00199327       0.01633114
Au       2.84351686       6.56696996       4.85076310        2       0.00000000      -0.00597738      -0.00345104       0.02385324
Au       5.68729189       6.56696996       4.85076310        2       0.00000000       0.00597738      -0.00345104       0.02385324
Au       8.53080876       6.56505454       4.83978696        2       0.00000000       0.00000000      -0.00398653       0.01633114
Au       0.00000000       0.00000000       7.22691513        3       0.00000000       0.00000000       0.00000000       0.07772491
Au       2.85679602       0.00007170       7.31483293        3       0.00000000       0.00109121      -0.00009858       0.00112797
Au       5.67401273       0.00007170       7.31483293        3       0.00000000      -0.00109121      -0.00009858       0.00112797
Au       1.42846011       2.47402208       7.31483293        3       0.00000000       0.00046023       0.00099431       0.00112797
Au       4.26540438       2.46263237       7.32257698        3       0.00000000       0.00000000       0.00000000      -0.00102799
Au       7.10234865       2.47402208       7.31483293        3       0.00000000      -0.00046023       0.00099431       0.00112797
Au       2.83706846       4.91380332       7.31483293        3       0.00000000      -0.00063098      -0.00089572       0.00112797
Au       5.69374029       4.91380332       7.31483293        3       0.00000000       0.00063098      -0.00089572       0.00112797
Au       8.53080876       4.92526473       7.32309137        3       0.00000000       0.00000000       0.00000000      -0.00613691
O       -0.00000000      -0.00000000       9.43013714        0       0.00000000      -0.00000000      -0.00000000       0.09750091
H        0.00000000       0.00000000      10.40936951        0       0.00000000       0.00000000       0.00000000       0.02376545
