38
Lattice="8.530808755166998 -2.5386237190646034e-15 -3.9793378221843725e-15 4.2654043775835015 7.387897096801325 -2.397330953518344e-16 0.0 0.0 22.28977243571786" Properties=species:S:1:pos:R:3:tags:I:1:initial_magmoms:R:1:forces:R:3 stress="0.0030578943685897163 1.9719486767555255e-06 1.3756768541867941e-05 1.9719486767555255e-06 0.0027458614884072526 0.0003176883930023838 1.3756768541867941e-05 0.0003176883930023838 -0.0023155838527627523" energy=-137.82380301113156 pbc="T T T"
Au       0.00000000       0.00000000       0.00000000        0       0.00000000      -0.00113468      -0.00115487      -0.15472572
Au       2.84360292       0.00000000       0.00000000        0       0.00000000       0.00118662      -0.00115608      -0.15490141
Au       5.68720584       0.00000000       0.00000000        0       0.00000000      -0.00003863      -0.00440928      -0.15498430
Au       1.42180146       2.46263237       0.00000000        0       0.00000000       0.00002568       0.00201761      -0.16322733
Au       4.26540438       2.46263237       0.00000000        0       0.00000000      -0.00116715       0.00209996      -0.16217475
Au       7.10900730       2.46263237       0.00000000        0       0.00000000       0.00120023       0.00205932      -0.16199615
Au       2.84360292       4.92526473       0.00000000        0       0.00000000      -0.00014565      -0.00009280      -0.16908329
Au       5.68720584       4.92526473       0.00000000        0       0.00000000      -0.00004413      -0.00182503      -0.16250390
Au       8.53080876       4.92526473       0.00000000        0       0.00000000       0.00023508       0.00001988      -0.16915863
Au       1.42180146       0.82087746       2.43012302        1       0.00000000      -0.00139537      -0.02803738       0.19016720
Au       4.26540438       0.82087746       2.43012302        1       0.00000000      -0.02038992      -0.05521192       0.17002042
Au       7.10900730       0.82087746       2.43012302        1       0.00000000       0.02158079      -0.05348313       0.17135820
Au       2.84360292       3.28350982       2.43012302        1       0.00000000       0.01162099      -0.02827952       0.11371342
Au       5.68720584       3.28350982       2.43012302        1       0.00000000       0.00047045       0.01150051       0.09818130
Au       8.53080876       3.28350982       2.43012302        1       0.00000000      -0.01258862      -0.02918630       0.11586979
Au       4.26540438       5.74614219       2.43012302        1       0.00000000      -0.01244323       0.05605280       0.18978874
Au       7.10900730       5.74614219       2.43012302        1       0.00000000       0.01353732       0.05581951       0.19102372
Au       9.95261021       5.74614219       2.43012302        1       0.00000000      -0.00163136       0.09407285       0.23415757
Au      -0.00066054       1.63392916       4.86243008        2       0.00000000       0.00109783       0.00389866       0.00620766
Au       2.84382356       1.63458171       4.86066296        2       0.00000000       0.00005229       0.00406492       0.00638657
Au       5.68729112       1.64481569       4.83274182        2       0.00000000       0.00040810       0.00702634      -0.00125296
Au       1.42149564       4.12661755       4.81409276        2       0.00000000       0.00053247       0.00582201       0.00034618
Au       4.26212410       4.11125190       4.83792718        2       0.00000000      -0.00198333       0.00493802      -0.00064215
Au       7.11197751       4.11119731       4.83824053        2       0.00000000       0.00312202       0.00458399      -0.00140963
Au       2.86174904       6.58249045       4.89338581        2       0.00000000       0.00260204       0.00651035      -0.00014691
Au       5.68640435       6.57469414       4.88795436        2       0.00000000       0.00038986       0.00268704      -0.00542378
Au       8.51220834       6.58287220       4.89439531        2       0.00000000      -0.00161864       0.00606894      -0.00179080
Au      -0.06821759      -0.00541680       7.42671112        3       0.00000000       0.00315450       0.00718129       0.00133561
Au       2.91598746      -0.00493550       7.41570171        3       0.00000000       0.00009585       0.00677345       0.00403335
Au       5.69038460       0.00636750       7.29825814        3       0.00000000       0.00151788       0.00729012      -0.00505590
Au       1.42355999       2.51725493       7.23125548        3       0.00000000      -0.00004734       0.01172739       0.00364192
Au       4.27558645       2.47859629       7.30843151        3       0.00000000      -0.00254171       0.00337491       0.00303868
Au       7.10342386       2.47811429       7.30996924        3       0.00000000       0.00181432       0.00276669       0.00223242
Au       2.84476377       4.91739365       7.32836666        3       0.00000000      -0.00135981       0.01051240      -0.00023246
Au       5.68917305       4.91572364       7.30752474        3       0.00000000      -0.00005736      -0.00574476      -0.01206995
Au       8.53401408       4.91708124       7.32832384        3       0.00000000       0.00046086       0.00965997       0.00050230
O        1.43572149       0.33706703       9.11504716        0       0.00000000      -0.00279274      -0.07206858       0.05260278
H        1.44271336      -0.51245979       9.60057699        0       0.00000000      -0.00372553      -0.04787925      -0.07382779
