38
Lattice="8.530808755166998 -2.5386237190646034e-15 -3.9793378221843725e-15 4.2654043775835015 7.387897096801325 -2.397330953518344e-16 0.0 0.0 22.28977243571786" Properties=species:S:1:pos:R:3:tags:I:1:initial_magmoms:R:1:forces:R:3 stress="0.0031478430412154156 1.9016004972964953e-08 -2.056553082237463e-06 1.9016004972964953e-08 0.0031478210834242747 -1.1873514755932143e-06 -2.056553082237463e-06 -1.1873514755932143e-06 -0.0012204883125173024" energy=-137.61698606876604 pbc="T T T"
Au       0.00000000       0.00000000       0.00000000        0       0.00000000      -0.00186423      -0.00107631      -0.17153965
Au       2.84360292       0.00000000       0.00000000        0       0.00000000      -0.00003673      -0.00115806      -0.15580676
Au       5.68720584       0.00000000       0.00000000        0       0.00000000       0.00190750      -0.00109207      -0.17133484
Au       1.42180146       2.46263237       0.00000000        0       0.00000000      -0.00102127       0.00054722      -0.15580676
Au       4.26540438       2.46263237       0.00000000        0       0.00000000       0.00098913       0.00057108      -0.15562485
Au       7.10900730       2.46263237       0.00000000        0       0.00000000       0.00002196      -0.00359415      -0.16218315
Au       2.84360292       4.92526473       0.00000000        0       0.00000000       0.00000799       0.00219798      -0.17133484
Au       5.68720584       4.92526473       0.00000000        0       0.00000000      -0.00310165       0.00181609      -0.16218315
Au       8.53080876       4.92526473       0.00000000        0       0.00000000       0.00309111       0.00178465      -0.16222275
Au       1.42180146       0.82087746       2.43012302        1       0.00000000       0.03252761       0.01877983       0.26334401
Au       4.26540438       0.82087746       2.43012302        1       0.00000000      -0.03189574       0.01949122       0.26456166
Au       7.10900730       0.82087746       2.43012302        1       0.00000000      -0.00087471       0.06777230       0.20192175
Au       2.84360292       3.28350982       2.43012302        1       0.00000000       0.00093203      -0.03736813       0.26456166
Au       5.68720584       3.28350982       2.43012302        1       0.00000000      -0.05089733      -0.02938559       0.18184784
Au       8.53080876       3.28350982       2.43012302        1       0.00000000       0.05006573      -0.02911787       0.17993683
Au       4.26540438       5.74614219       2.43012302        1       0.00000000       0.05825518      -0.03464367       0.20192175
Au       7.10900730       5.74614219       2.43012302        1       0.00000000      -0.00018395       0.05791713       0.17993683
Au       9.95261021       5.74614219       2.43012302        1       0.00000000      -0.05798672      -0.03347865       0.20072089
Au       0.01286246       1.64573871       4.87986232        2       0.00000000      -0.00423330      -0.00464291      -0.03507717
Au       2.84366601       1.64179133       4.93178346        2       0.00000000       0.00034798       0.00020090      -0.04755505
Au       5.67403612       1.64602575       4.88089652        2       0.00000000       0.00445862      -0.00462112      -0.03601531
Au       1.42486724       4.09131472       4.87984122        2       0.00000000       0.00194372       0.00624697      -0.03542961
Au       4.26251818       4.09084654       4.88089652        2       0.00000000      -0.00177270       0.00617184      -0.03601531
Au       7.10907598       4.10442693       4.82740814        2       0.00000000      -0.00004717      -0.00002723      -0.00522909
Au       2.84370010       6.56707575       4.81541476        2       0.00000000      -0.00019707      -0.00011378       0.00851209
Au       5.69708714       6.57616696       4.87986232        2       0.00000000      -0.00613753      -0.00134469      -0.03507717
Au       8.52102048       6.57621097       4.87984122        2       0.00000000       0.00638190      -0.00144017      -0.03542961
Au      -0.01306468      -0.00754289       7.31796061        3       0.00000000      -0.00380273      -0.00219551       0.00674859
Au       2.84348833      -0.07682282       7.41972612        3       0.00000000      -0.00003586      -0.04510733      -0.07966504
Au       5.70027971      -0.00762031       7.31780132        3       0.00000000       0.00464012      -0.00228651       0.00803206
Au       1.35521366       2.50094454       7.41972612        3       0.00000000      -0.03908202       0.02252261      -0.07966504
Au       4.33304107       2.50168243       7.42416178        3       0.00000000       0.03704053       0.02138536      -0.07741500
Au       7.10951717       2.46469569       7.30885877        3       0.00000000      -0.00080008      -0.00215285       0.00401467
Au       2.84354047       4.94039719       7.31780132        3       0.00000000       0.00033989       0.00516172       0.00803206
Au       5.68924767       4.92467463       7.30885877        3       0.00000000      -0.00226446       0.00038353       0.00401467
Au       8.52935037       4.92442273       7.30942975        3       0.00000000       0.00215309       0.00124309       0.00390944
O        2.84830133       1.64446754       9.04476288        0       0.00000000      -0.00135383      -0.00078163       0.02818649
H        2.85909161       1.65069731      10.02141022        0       0.00000000       0.00248499       0.00143471      -0.03959318
