36
Lattice="7.48445684844538 -1.3897408493980594e-14 -7.065633340829903e-16 3.7422284242227066 6.48172976428211 2.5228537460897006e-15 0.0 0.0 21.202961997606344" Properties=species:S:1:pos:R:3:tags:I:1:initial_magmoms:R:1:forces:R:3 stress="-0.0022495200456392056 9.859323895256565e-17 -4.113125865227986e-18 9.859323895256565e-17 -0.0022495200456394276 7.488837181792091e-17 -4.113125865227986e-18 7.488837181792091e-17 -0.004271735656288404" energy=-142.85779715449738 pbc="T T T"
Cu       0.00000000       0.00000000       0.00000000        0       0.00000000       0.00000000       0.00000000      -0.08380237
Cu       2.49481895       0.00000000       0.00000000        0       0.00000000       0.00000000       0.00000000      -0.08380237
Cu       4.98963790       0.00000000       0.00000000        0       0.00000000      -0.00000000       0.00000000      -0.08380237
Cu       1.24740947       2.16057659       0.00000000        0       0.00000000       0.00000000       0.00000000      -0.08380237
Cu       3.74222842       2.16057659       0.00000000        0       0.00000000       0.00000000       0.00000000      -0.08380237
Cu       6.23704737       2.16057659       0.00000000        0       0.00000000      -0.00000000       0.00000000      -0.08380237
Cu       2.49481895       4.32115318       0.00000000        0       0.00000000       0.00000000      -0.00000000      -0.08380237
Cu       4.98963790       4.32115318       0.00000000        0       0.00000000       0.00000000      -0.00000000      -0.08380237
Cu       7.48445685       4.32115318       0.00000000        0       0.00000000      -0.00000000      -0.00000000      -0.08380237
Cu       1.24740947       0.72019220       2.06931284        1       0.00000000       0.00000000       0.00000000       0.01173256
Cu       3.74222842       0.72019220       2.06931284        1       0.00000000      -0.00000000       0.00000000       0.01173256
Cu       6.23704737       0.72019220       2.06931284        1       0.00000000      -0.00000000       0.00000000       0.01173256
Cu       2.49481895       2.88076878       2.06931284        1       0.00000000       0.00000000      -0.00000000       0.01173256
Cu       4.98963790       2.88076878       2.06931284        1       0.00000000      -0.00000000       0.00000000       0.01173256
Cu       7.48445685       2.88076878       2.06931284        1       0.00000000      -0.00000000      -0.00000000       0.01173256
Cu       3.74222842       5.04134537       2.06931284        1       0.00000000       0.00000000      -0.00000000       0.01173256
Cu       6.23704737       5.04134537       2.06931284        1       0.00000000      -0.00000000      -0.00000000       0.01173256
Cu       8.73186632       5.04134537       2.06931284        1       0.00000000      -0.00000000      -0.00000000       0.01173256
Cu       0.00000000       1.44038439       4.13364916        2       0.00000000       0.00000000       0.00000000      -0.01173256
Cu       2.49481895       1.44038439       4.13364916        2       0.00000000      -0.00000000       0.00000000      -0.01173256
Cu       4.98963790       1.44038439       4.13364916        2       0.00000000      -0.00000000       0.00000000      -0.01173256
Cu       1.24740947       3.60096098       4.13364916        2       0.00000000       0.00000000       0.00000000      -0.01173256
Cu       3.74222842       3.60096098       4.13364916        2       0.00000000       0.00000000      -0.00000000      -0.01173256
Cu       6.23704737       3.60096098       4.13364916        2       0.00000000      -0.00000000      -0.00000000      -0.01173256
Cu       2.49481895       5.76153757       4.13364916        2       0.00000000       0.00000000       0.00000000      -0.01173256
Cu       4.98963790       5.76153757       4.13364916        2       0.00000000       0.00000000      -0.00000000      -0.01173256
Cu       7.48445685       5.76153757       4.13364916        2       0.00000000      -0.00000000      -0.00000000      -0.01173256
Cu       0.00000000       0.00000000       6.20296200        3       0.00000000       0.00000000       0.00000000       0.08380237
Cu       2.49481895       0.00000000       6.20296200        3       0.00000000      -0.00000000       0.00000000       0.08380237
Cu       4.98963790       0.00000000       6.20296200        3       0.00000000      -0.00000000       0.00000000       0.08380237
Cu       1.24740947       2.16057659       6.20296200        3       0.00000000       0.00000000       0.00000000       0.08380237
Cu       3.74222842       2.16057659       6.20296200        3       0.00000000      -0.00000000       0.00000000       0.08380237
Cu       6.23704737       2.16057659       6.20296200        3       0.00000000      -0.00000000      -0.00000000       0.08380237
Cu       2.49481895       4.32115318       6.20296200        3       0.00000000       0.00000000      -0.00000000       0.08380237
Cu       4.98963790       4.32115318       6.20296200        3       0.00000000       0.00000000      -0.00000000       0.08380237
Cu       7.48445685       4.32115318       6.20296200        3       0.00000000      -0.00000000      -0.00000000       0.08380237
