39
Lattice="8.530808755166998 -2.5386237190646034e-15 -3.9793378221843725e-15 4.2654043775835015 7.387897096801325 -2.397330953518344e-16 0.0 0.0 22.28977243571786" Properties=species:S:1:pos:R:3:tags:I:1:initial_magmoms:R:1:forces:R:3 stress="0.003926014165108587 -3.0785925511943286e-05 5.327365035344753e-05 -3.0785925511943286e-05 0.0038735134699056026 -5.3405056522479684e-05 5.327365035344753e-05 -5.3405056522479684e-05 -0.0017361624452817363" energy=-142.29788076209422 pbc="T T T"
Au       0.00000000       0.00000000       0.00000000        0       0.00000000      -0.00111718      -0.00049776      -0.15657741
Au       2.84360292       0.00000000       0.00000000        0       0.00000000       0.00122234      -0.00063803      -0.15770935
Au       5.68720584       0.00000000       0.00000000        0       0.00000000      -0.00002609      -0.00212666      -0.16063847
Au       1.42180146       2.46263237       0.00000000        0       0.00000000      -0.00015369       0.00145903      -0.16038955
Au       4.26540438       2.46263237       0.00000000        0       0.00000000      -0.00056136       0.00107740      -0.16112139
Au       7.10900730       2.46263237       0.00000000        0       0.00000000       0.00075239       0.00142612      -0.16079298
Au       2.84360292       4.92526473       0.00000000        0       0.00000000      -0.00075838       0.00017648      -0.16570760
Au       5.68720584       4.92526473       0.00000000        0       0.00000000       0.00035043      -0.00119713      -0.16177545
Au       8.53080876       4.92526473       0.00000000        0       0.00000000       0.00034959      -0.00004195      -0.16732936
Au       1.42180146       0.82087746       2.43012302        1       0.00000000      -0.00635702      -0.00269305       0.21631678
Au       4.26540438       0.82087746       2.43012302        1       0.00000000      -0.02520360      -0.02140168       0.17915247
Au       7.10900730       0.82087746       2.43012302        1       0.00000000       0.03086162      -0.02687634       0.19539762
Au       2.84360292       3.28350982       2.43012302        1       0.00000000      -0.00066005      -0.02997559       0.15899259
Au       5.68720584       3.28350982       2.43012302        1       0.00000000       0.00134962       0.00903356       0.13702228
Au       8.53080876       3.28350982       2.43012302        1       0.00000000      -0.00139681      -0.03565294       0.16328071
Au       4.26540438       5.74614219       2.43012302        1       0.00000000      -0.00708634       0.03765970       0.19267753
Au       7.10900730       5.74614219       2.43012302        1       0.00000000      -0.00050073       0.03077451       0.18555697
Au       9.95261021       5.74614219       2.43012302        1       0.00000000       0.00769307       0.04316147       0.20801979
Au       0.00089244       1.63188977       4.87809888        2       0.00000000       0.00021921      -0.00005402      -0.03130528
Au       2.84170842       1.63397095       4.87237019        2       0.00000000       0.00180686      -0.00561331      -0.03065108
Au       5.68721913       1.64269373       4.84063091        2       0.00000000       0.00195691      -0.00821932      -0.00462943
Au       1.42084468       4.10711999       4.83776819        2       0.00000000       0.00157483      -0.00525930      -0.00003853
Au       4.26079871       4.10566594       4.84617280        2       0.00000000       0.00444291       0.00190976      -0.00559300
Au       7.11391143       4.10443915       4.84697385        2       0.00000000      -0.00184117       0.00089478      -0.00466856
Au       2.85295734       6.57216219       4.88022095        2       0.00000000       0.01037981      -0.00177426       0.00292600
Au       5.68576072       6.57042215       4.87850892        2       0.00000000       0.00433449      -0.00167889      -0.03443639
Au       8.52536550       6.56957743       4.87048044        2       0.00000000      -0.00934274       0.00021128       0.01053807
Au      -0.03054601      -0.02735766       7.40258296        3       0.00000000      -0.03749285       0.00196002      -0.00651010
Au       2.89305371      -0.03021407       7.36877165        3       0.00000000       0.02885805       0.01068953       0.00959920
Au       5.69439824      -0.00651226       7.31651899        3       0.00000000      -0.01058651      -0.01896558       0.01118382
Au       1.42669168       2.45380538       7.30659866        3       0.00000000       0.00048742       0.06989599      -0.01579027
Au       4.27352665       2.46068195       7.32210824        3       0.00000000      -0.00081362      -0.02186278       0.00168705
Au       7.10791126       2.45798825       7.32527500        3       0.00000000       0.01224298      -0.01705559       0.00329329
Au       2.83651616       4.89959165       7.33253538        3       0.00000000       0.02463034       0.00750943      -0.00596991
Au       5.69100160       4.91157351       7.30074772        3       0.00000000       0.00260455      -0.05536434       0.02524181
Au       8.54060418       4.89643510       7.34171207        3       0.00000000      -0.01784849       0.02045745      -0.00818226
O        1.42762958       0.20545806       9.33605691        0       0.00000000      -0.01057297       0.01807507       0.01344720
O        1.41187907      -0.78058995      10.35160900        0       0.00000000       0.04052938      -0.01403879      -0.08609001
H        2.34945258      -0.76106333      10.64603304        0       0.00000000      -0.04432721       0.01461576      -0.02842682
