3
Lattice="15.0 0.0 0.0 0.0 15.0 0.0 0.0 0.0 15.0" Properties=species:S:1:pos:R:3:initial_magmoms:R:1:forces:R:3 stress="5.642471857093221e-06 -1.3442765624683841e-05 2.3279099412849133e-05 -1.3442765624683841e-05 6.01804561856651e-06 -1.0413955173941113e-05 2.3279099412849133e-05 -1.0413955173941113e-05 1.805235160661629e-05" energy=-13.446713761240769 pbc="T T T"
O        7.04090087       7.89347482       6.81845588       0.00000000       0.06302997      -0.02019159       0.03499473
O        7.01474607       7.22167809       7.98166285       0.00000000      -0.04150541      -0.02761285       0.04779018
H        7.97485306       7.08109709       8.22558126       0.00000000      -0.02152456       0.04780444      -0.08278491
