37
Lattice="7.48445684844538 -1.3897408493980594e-14 -7.065633340829903e-16 3.7422284242227066 6.48172976428211 2.5228537460897006e-15 0.0 0.0 21.202961997606344" Properties=species:S:1:pos:R:3:tags:I:1:initial_magmoms:R:1:forces:R:3 stress="-0.0040084101697986305 8.305247354703036e-06 1.5135141447140245e-05 8.305247354703036e-06 -0.0032891657510697205 -0.0006066006711279693 1.5135141447140245e-05 -0.0006066006711279693 -0.0014870876653734297" energy=-149.35794336664537 pbc="T T T"
Cu       0.00000000       0.00000000       0.00000000        0       0.00000000       0.00016194       0.00031486      -0.07940856
Cu       2.49481895       0.00000000       0.00000000        0       0.00000000      -0.00016252       0.00031371      -0.07941509
Cu       4.98963790       0.00000000       0.00000000        0       0.00000000      -0.00000085      -0.00059624      -0.08156670
Cu       1.24740947       2.16057659       0.00000000        0       0.00000000      -0.00000176      -0.00020653      -0.07867066
Cu       3.74222842       2.16057659       0.00000000        0       0.00000000      -0.00191898      -0.00105843      -0.08354814
Cu       6.23704737       2.16057659       0.00000000        0       0.00000000       0.00192218      -0.00106032      -0.08353486
Cu       2.49481895       4.32115318       0.00000000        0       0.00000000      -0.00064550       0.00023592      -0.08176377
Cu       4.98963790       4.32115318       0.00000000        0       0.00000000      -0.00000053       0.00189225      -0.08455886
Cu       7.48445685       4.32115318       0.00000000        0       0.00000000       0.00064468       0.00023499      -0.08176153
Cu       1.24740947       0.72019220       2.06931284        1       0.00000000       0.00030891      -0.00860991       0.14331459
Cu       3.74222842       0.72019220       2.06931284        1       0.00000000      -0.02032142      -0.02643835       0.07265053
Cu       6.23704737       0.72019220       2.06931284        1       0.00000000       0.02114990      -0.02645724       0.07280946
Cu       2.49481895       2.88076878       2.06931284        1       0.00000000      -0.02813008      -0.02484127       0.06746456
Cu       4.98963790       2.88076878       2.06931284        1       0.00000000       0.00044898      -0.01767216       0.00116409
Cu       7.48445685       2.88076878       2.06931284        1       0.00000000       0.02889927      -0.02499923       0.06749285
Cu       3.74222842       5.04134537       2.06931284        1       0.00000000      -0.00805255       0.00312712       0.05512483
Cu       6.23704737       5.04134537       2.06931284        1       0.00000000       0.00877499       0.00306961       0.05515108
Cu       8.73186632       5.04134537       2.06931284        1       0.00000000       0.00038427      -0.01982982       0.15108952
Cu       0.00573810       1.41955243       4.16030475        2       0.00000000      -0.00414369      -0.00833401      -0.00283924
Cu       2.49001416       1.41959360       4.16021146        2       0.00000000       0.00370982      -0.00798779      -0.00239343
Cu       4.99005958       1.42126246       4.12979085        2       0.00000000       0.00028635      -0.00835269       0.00914126
Cu       1.24783851       3.56579687       4.15755507        2       0.00000000       0.00006288       0.00247524      -0.01885896
Cu       3.73978461       3.58008389       4.12779296        2       0.00000000       0.00694966       0.00249345       0.00562914
Cu       6.24040374       3.58006805       4.12781186        2       0.00000000      -0.00720631       0.00249314       0.00522385
Cu       2.50758855       5.74851842       4.15272399        2       0.00000000      -0.00150473      -0.00252178       0.00156626
Cu       4.99008982       5.74436231       4.15139398        2       0.00000000      -0.00028255       0.00009196       0.02638509
Cu       7.47258858       5.74853987       4.15270891        2       0.00000000       0.00128676      -0.00278132       0.00079332
Cu      -0.04430324      -0.07254417       6.31060850        3       0.00000000      -0.00801782       0.01103223       0.03045072
Cu       2.54081433      -0.07227350       6.31030633        3       0.00000000       0.00750936       0.00871246       0.02991775
Cu       4.99022800      -0.04296709       6.19802139        3       0.00000000       0.00246704       0.00814506       0.01312786
Cu       1.24822775       2.17157462       6.33411119        3       0.00000000      -0.00059994       0.04399911      -0.03461342
Cu       3.75724674       2.12563677       6.20642167        3       0.00000000       0.00881295       0.01894449      -0.00276992
Cu       6.22376741       2.12567720       6.20636031        3       0.00000000      -0.00965992       0.01777550      -0.00246125
Cu       2.49336728       4.27889245       6.20182650        3       0.00000000       0.00558236       0.01394583       0.00124706
Cu       4.99049039       4.25386474       6.19158520        3       0.00000000      -0.00053420       0.04510294       0.04105382
Cu       7.48749114       4.27911395       6.20180892        3       0.00000000      -0.00595069       0.01201801       0.00145054
O        1.24860923       0.66888410       7.47633623        0       0.00000000      -0.00222828      -0.01467081      -0.05408382
