37
Lattice="7.48445684844538 -1.3897408493980594e-14 -7.065633340829903e-16 3.7422284242227066 6.48172976428211 2.5228537460897006e-15 0.0 0.0 21.202961997606344" Properties=species:S:1:pos:R:3:tags:I:1:initial_magmoms:R:1:forces:R:3 stress="-0.0010374497793390752 1.3230549222888855e-16 2.07900760501163e-16 1.3230549222888855e-16 -0.001037449779339325 2.9663716134208895e-16 2.07900760501163e-16 2.9663716134208895e-16 -0.0008967677342533575" energy=-147.90098050498347 pbc="T T T"
Cu       0.00000000       0.00000000       0.00000000        0       0.00000000       0.00000000       0.00000000      -0.08280614
Cu       2.49481895       0.00000000       0.00000000        0       0.00000000       0.00096530       0.00000502      -0.08089825
Cu       4.98963790       0.00000000       0.00000000        0       0.00000000      -0.00096530       0.00000502      -0.08089825
Cu       1.24740947       2.16057659       0.00000000        0       0.00000000       0.00048700       0.00083347      -0.08089825
Cu       3.74222842       2.16057659       0.00000000        0       0.00000000       0.00000000       0.00000000      -0.07905077
Cu       6.23704737       2.16057659       0.00000000        0       0.00000000      -0.00048700       0.00083347      -0.08089825
Cu       2.49481895       4.32115318       0.00000000        0       0.00000000      -0.00047830      -0.00083849      -0.08089825
Cu       4.98963790       4.32115318       0.00000000        0       0.00000000       0.00047830      -0.00083849      -0.08089825
Cu       7.48445685       4.32115318       0.00000000        0       0.00000000      -0.00000000      -0.00000000      -0.07690370
Cu       1.24740947       0.72019220       2.06931284        1       0.00000000       0.03453763       0.01994031       0.03417304
Cu       3.74222842       0.72019220       2.06931284        1       0.00000000      -0.00000000      -0.01072020       0.16209581
Cu       6.23704737       0.72019220       2.06931284        1       0.00000000      -0.03453763       0.01994031       0.03417304
Cu       2.49481895       2.88076878       2.06931284        1       0.00000000      -0.00928396       0.00536010       0.16209581
Cu       4.98963790       2.88076878       2.06931284        1       0.00000000       0.00928396       0.00536010       0.16209581
Cu       7.48445685       2.88076878       2.06931284        1       0.00000000      -0.00000000       0.05713374       0.09294169
Cu       3.74222842       5.04134537       2.06931284        1       0.00000000       0.00000000      -0.03988063       0.03417304
Cu       6.23704737       5.04134537       2.06931284        1       0.00000000       0.04947927      -0.02856687       0.09294169
Cu       8.73186632       5.04134537       2.06931284        1       0.00000000      -0.04947927      -0.02856687       0.09294169
Cu       0.00000000       1.45305305       4.12781810        2       0.00000000      -0.00000000      -0.01093284      -0.01053804
Cu       2.49026720       1.43775644       4.16062420        2       0.00000000       0.00270715       0.00156297      -0.00092159
Cu       4.99418964       1.43775644       4.16062420        2       0.00000000      -0.00270715       0.00156297      -0.00092159
Cu       1.25158831       3.59854833       4.16894955        2       0.00000000      -0.00262423       0.00151510      -0.00049280
Cu       3.74222842       3.60621688       4.16062420        2       0.00000000       0.00000000      -0.00312594      -0.00092159
Cu       6.23286854       3.59854833       4.16894955        2       0.00000000       0.00262423       0.00151510      -0.00049280
Cu       2.48384757       5.75520324       4.12781810        2       0.00000000       0.00946812       0.00546642      -0.01053804
Cu       5.00060928       5.75520324       4.12781810        2       0.00000000      -0.00946812       0.00546642      -0.01053804
Cu       7.48445685       5.76636287       4.16894955        2       0.00000000       0.00000000      -0.00303019      -0.00049280
Cu       0.00000000       0.00000000       6.09906582        3       0.00000000       0.00000000       0.00000000       0.02992576
Cu       2.50014007      -0.00102019       6.27220528        3       0.00000000      -0.00366956      -0.00195220      -0.02849246
Cu       4.98431678      -0.00102019       6.27220528        3       0.00000000       0.00366956      -0.00195220      -0.02849246
Cu       1.24918653       2.16569491       6.27220528        3       0.00000000      -0.00352543      -0.00220183      -0.02849246
Cu       3.74222842       2.16057659       6.22531089        3       0.00000000       0.00000000      -0.00000000       0.00941021
Cu       6.23527032       2.16569491       6.27220528        3       0.00000000       0.00352543      -0.00220183      -0.02849246
Cu       2.49127488       4.31705505       6.27220528        3       0.00000000       0.00014413       0.00415403      -0.02849246
Cu       4.99318197       4.31705505       6.27220528        3       0.00000000      -0.00014413       0.00415403      -0.02849246
Cu       7.48445685       4.32115318       6.23761396        3       0.00000000       0.00000000       0.00000000       0.00704780
O       -0.00000000      -0.00000000       7.83102649        0       0.00000000      -0.00000000      -0.00000000       0.01694674
