37
Lattice="7.48445684844538 -1.3897408493980594e-14 -7.065633340829903e-16 3.7422284242227066 6.48172976428211 2.5228537460897006e-15 0.0 0.0 21.202961997606344" Properties=species:S:1:pos:R:3:tags:I:1:initial_magmoms:R:1:forces:R:3 stress="-0.00310383703881148 3.712976334355835e-06 4.354018695436576e-05 3.712976334355835e-06 -0.0031081244145838467 2.5137938658743472e-05 4.354018695436576e-05 2.5137938658743472e-05 -0.00012081640653194975" energy=-149.32240832411176 pbc="T T T"
Cu       0.00000000       0.00000000       0.00000000        0       0.00000000       0.00016487       0.00009519      -0.08127604
Cu       2.49481895       0.00000000       0.00000000        0       0.00000000       0.00000008       0.00178540      -0.07436328
Cu       4.98963790       0.00000000       0.00000000        0       0.00000000      -0.00016076       0.00008030      -0.08123341
Cu       1.24740947       2.16057659       0.00000000        0       0.00000000       0.00154624      -0.00089263      -0.07436328
Cu       3.74222842       2.16057659       0.00000000        0       0.00000000      -0.00156364      -0.00090277      -0.07438342
Cu       6.23704737       2.16057659       0.00000000        0       0.00000000       0.00001790      -0.00049816      -0.08314351
Cu       2.49481895       4.32115318       0.00000000        0       0.00000000      -0.00001084      -0.00017937      -0.08123341
Cu       4.98963790       4.32115318       0.00000000        0       0.00000000      -0.00042247       0.00026458      -0.08314351
Cu       7.48445685       4.32115318       0.00000000        0       0.00000000       0.00043426       0.00025072      -0.08300327
Cu       1.24740947       0.72019220       2.06931284        1       0.00000000       0.01633238       0.00942950       0.18364703
Cu       3.74222842       0.72019220       2.06931284        1       0.00000000      -0.01528491       0.00833759       0.18505593
Cu       6.23704737       0.72019220       2.06931284        1       0.00000000       0.00108074       0.03197063       0.12426640
Cu       2.49481895       2.88076878       2.06931284        1       0.00000000      -0.00042189      -0.01740592       0.18505593
Cu       4.98963790       2.88076878       2.06931284        1       0.00000000      -0.02940942      -0.01697954       0.06605913
Cu       7.48445685       2.88076878       2.06931284        1       0.00000000       0.02980278      -0.01675182       0.06797325
Cu       3.74222842       5.04134537       2.06931284        1       0.00000000       0.02822775      -0.01504936       0.12426640
Cu       6.23704737       5.04134537       2.06931284        1       0.00000000       0.00039389       0.03418587       0.06797325
Cu       8.73186632       5.04134537       2.06931284        1       0.00000000      -0.02829546      -0.01633639       0.12681573
Cu       0.01227778       1.44719460       4.16266864        2       0.00000000      -0.00808223      -0.00363587      -0.03158229
Cu       2.49547659       1.44076408       4.19284147        2       0.00000000       0.00214187       0.00123661      -0.03807811
Cu       4.97931707       1.44699774       4.16230014        2       0.00000000       0.00838367      -0.00029571      -0.02791160
Cu       1.24728465       3.58757231       4.16319794        2       0.00000000       0.00011364       0.01137939      -0.03178151
Cu       3.74279534       3.58871621       4.16230014        2       0.00000000       0.00393575       0.00740832      -0.02791160
Cu       6.23703779       3.60095545       4.12305939        2       0.00000000       0.00160021       0.00092388       0.00488766
Cu       2.49484937       5.76155513       4.13028712        2       0.00000000       0.00068437       0.00039512      -0.00469328
Cu       5.00167460       5.76876533       4.16266864        2       0.00000000      -0.00718987      -0.00518148      -0.03158229
Cu       7.47279951       5.76812380       4.16319794        2       0.00000000       0.00991166      -0.00559128      -0.03178151
Cu      -0.01479904      -0.00854423       6.21366841        3       0.00000000       0.00562275       0.00324630       0.00495309
Cu       2.49731311      -0.05313613       6.36595744        3       0.00000000      -0.00303407      -0.01292326      -0.07645363
Cu       5.00615486      -0.00850120       6.21385740        3       0.00000000       0.00636051       0.00440068       0.00381481
Cu       1.20263932       2.18930466       6.36595744        3       0.00000000      -0.01270890       0.00383405      -0.07645363
Cu       3.79567008       2.19143114       6.36108657        3       0.00000000       0.01447016       0.00835435      -0.07393124
Cu       6.24244344       2.16904112       6.20442526        3       0.00000000      -0.02042275       0.00100827       0.00213697
Cu       2.49571518       4.33970788       6.21385740        3       0.00000000       0.00699136       0.00330802       0.00381481
Cu       4.99966644       4.32159404       6.20442526        3       0.00000000      -0.00933819      -0.01819075       0.00213697
Cu       7.47899104       4.31799749       6.20500823        3       0.00000000       0.00662334       0.00382399       0.00365583
O        2.50310136       1.44516625       7.51444172        0       0.00000000      -0.00849475      -0.00490445       0.01179063
