37
Lattice="7.48445684844538 -1.3897408493980594e-14 -7.065633340829903e-16 3.7422284242227066 6.48172976428211 2.5228537460897006e-15 0.0 0.0 21.202961997606344" Properties=species:S:1:pos:R:3:tags:I:1:initial_magmoms:R:1:forces:R:3 stress="-0.0031848297879723993 1.6370185433902104e-05 2.2895719502491305e-05 1.6370185433902104e-05 -0.003203732449906311 1.3218849818162893e-05 2.2895719502491305e-05 1.3218849818162893e-05 -1.9536820071372474e-05" energy=-149.3555105289235 pbc="T T T"
Cu       0.00000000       0.00000000       0.00000000        0       0.00000000       0.00035761       0.00020647      -0.07591954
Cu       2.49481895       0.00000000       0.00000000        0       0.00000000      -0.00037780       0.00021690      -0.07592771
Cu       4.98963790       0.00000000       0.00000000        0       0.00000000       0.00001790      -0.00088036      -0.08018873
Cu       1.24740947       2.16057659       0.00000000        0       0.00000000      -0.00000106      -0.00043564      -0.07592771
Cu       3.74222842       2.16057659       0.00000000        0       0.00000000      -0.00222123      -0.00128243      -0.08279109
Cu       6.23704737       2.16057659       0.00000000        0       0.00000000       0.00222171      -0.00128719      -0.08277218
Cu       2.49481895       4.32115318       0.00000000        0       0.00000000      -0.00075346       0.00045568      -0.08018873
Cu       4.98963790       4.32115318       0.00000000        0       0.00000000      -0.00000388       0.00256765      -0.08277218
Cu       7.48445685       4.32115318       0.00000000        0       0.00000000       0.00076375       0.00044095      -0.08021895
Cu       1.24740947       0.72019220       2.06931284        1       0.00000000      -0.00021457      -0.00012388       0.22174072
Cu       3.74222842       0.72019220       2.06931284        1       0.00000000      -0.03177686      -0.01477136       0.11842735
Cu       6.23704737       0.72019220       2.06931284        1       0.00000000       0.03176442      -0.01481257       0.11918964
Cu       2.49481895       2.88076878       2.06931284        1       0.00000000      -0.02868080      -0.02013389       0.11842735
Cu       4.98963790       2.88076878       2.06931284        1       0.00000000      -0.00010182      -0.00005879       0.02071263
Cu       7.48445685       2.88076878       2.06931284        1       0.00000000       0.02904319      -0.02003263       0.11885256
Cu       3.74222842       5.04134537       2.06931284        1       0.00000000       0.00305415       0.03491508       0.11918964
Cu       6.23704737       5.04134537       2.06931284        1       0.00000000      -0.00282717       0.03516846       0.11885256
Cu       8.73186632       5.04134537       2.06931284        1       0.00000000       0.00085743       0.00049504       0.21003062
Cu       0.00656650       1.43671539       4.17784434        2       0.00000000      -0.00983332       0.00794868      -0.04520083
Cu       2.48831229       1.43662777       4.17772039        2       0.00000000       0.01180683       0.00681668      -0.04697251
Cu       4.98956160       1.43947187       4.13264491        2       0.00000000       0.00072512       0.00021328      -0.00325290
Cu       1.24768394       3.58384139       4.16589693        2       0.00000000       0.00081280       0.01183987      -0.03002575
Cu       3.74140001       3.60135117       4.13264491        2       0.00000000       0.00054727       0.00052134      -0.00325290
Cu       6.23785286       3.60142603       4.13250356        2       0.00000000       0.00155783       0.00089941      -0.00273752
Cu       2.51074892       5.77073474       4.16627627        2       0.00000000      -0.01111339      -0.00641632      -0.03356345
Cu       4.98974369       5.76905882       4.17784434        2       0.00000000       0.00196710      -0.01249025      -0.04520083
Cu       7.46976809       5.77033506       4.16589693        2       0.00000000       0.01066003      -0.00521603      -0.03002575
Cu      -0.04838073      -0.02793263       6.36167467        3       0.00000000      -0.01128191      -0.00651362      -0.08459356
Cu       2.54782888      -0.02913506       6.35902362        3       0.00000000       0.00926436      -0.00676163      -0.08106060
Cu       4.99241871      -0.00041551       6.20906726        3       0.00000000      -0.01042416       0.00064987       0.00123587
Cu       1.24868274       2.22105207       6.35902362        3       0.00000000      -0.00122357       0.01140399      -0.08106060
Cu       3.75881347       2.17015197       6.20991531        3       0.00000000       0.00603759       0.00348580       0.00743688
Cu       6.22126837       2.17017056       6.20965605        3       0.00000000       0.00000680       0.00396246       0.00876559
Cu       2.49584951       4.32376919       6.20906726        3       0.00000000      -0.00464928      -0.00935252       0.00123587
Cu       4.99005702       4.30269118       6.20965605        3       0.00000000       0.00343499      -0.00197534       0.00876559
Cu       7.48565276       4.32184364       6.20862954        3       0.00000000       0.00349390       0.00201721       0.00143353
O        1.25159309       0.72260761       7.50447024        0       0.00000000      -0.00291050      -0.00168038       0.00935763
