2
Lattice="15.0 0.0 0.0 0.0 15.0 0.0 0.0 0.0 15.0" Properties=species:S:1:pos:R:3:initial_magmoms:R:1:forces:R:3 stress="2.757817895153667e-09 0.0 2.745014180916714e-26 0.0 2.757817895153667e-09 3.137159063904816e-26 2.745014180916714e-26 3.137159063904816e-26 -2.1601728051311427e-06" energy=-8.232347951266604 pbc="T T T"
O        7.50000000       7.50000000       7.00725161       0.00000000       0.00000000       0.00000000      -0.00740817
H        7.50000000       7.50000000       7.99274839       0.00000000       0.00000000       0.00000000       0.00740817
