38
Lattice="8.143282129841092 -3.9719248023175796e-16 4.2043796269772325e-15 4.071641064920545 7.05228919462624 1.1826840171501552e-15 0.0 0.0 21.817084989057776" Properties=species:S:1:pos:R:3:tags:I:1:initial_magmoms:R:1:forces:R:3 stress="-0.0027648005443409833 1.8824291813047518e-17 6.983582274258286e-17 1.8824291813047518e-17 -0.0027648005443407335 -7.254628616221205e-17 6.983582274258286e-17 -7.254628616221205e-17 -0.0014738090545992812" energy=-206.2561431881143 pbc="T T T"
Pd      -0.00000000       0.00000000       0.00000000        0       0.00000000      -0.00000000       0.00000000      -0.10783862
Pd       2.71442738      -0.00000000       0.00000000        0       0.00000000      -0.00019452       0.00001174      -0.10763328
Pd       5.42885475      -0.00000000       0.00000000        0       0.00000000       0.00019452       0.00001174      -0.10763328
Pd       1.35721369       2.35076306       0.00000000        0       0.00000000      -0.00008709      -0.00017434      -0.10763328
Pd       4.07164106       2.35076306       0.00000000        0       0.00000000      -0.00000000      -0.00000000      -0.10377680
Pd       6.78606844       2.35076306       0.00000000        0       0.00000000       0.00008709      -0.00017434      -0.10763328
Pd       2.71442738       4.70152613       0.00000000        0       0.00000000       0.00010743       0.00016259      -0.10763328
Pd       5.42885475       4.70152613       0.00000000        0       0.00000000      -0.00010743       0.00016259      -0.10763328
Pd       8.14328213       4.70152613       0.00000000        0       0.00000000       0.00000000      -0.00000000      -0.11012164
Pd       1.35721369       0.78358769       2.26968927        1       0.00000000      -0.00398230      -0.00229918       0.13791139
Pd       4.07164106       0.78358769       2.26968927        1       0.00000000       0.00000000      -0.00331819       0.12283328
Pd       6.78606844       0.78358769       2.26968927        1       0.00000000       0.00398230      -0.00229918       0.13791139
Pd       2.71442738       3.13435075       2.26968927        1       0.00000000      -0.00287363       0.00165909       0.12283328
Pd       5.42885475       3.13435075       2.26968927        1       0.00000000       0.00287363       0.00165909       0.12283328
Pd       8.14328213       3.13435075       2.26968927        1       0.00000000       0.00000000       0.01469816       0.12887331
Pd       4.07164106       5.48511382       2.26968927        1       0.00000000       0.00000000       0.00459837       0.13791139
Pd       6.78606844       5.48511382       2.26968927        1       0.00000000       0.01272898      -0.00734908       0.12887331
Pd       9.50049582       5.48511382       2.26968927        1       0.00000000      -0.01272898      -0.00734908       0.12887331
Pd      -0.00000000       1.56214728       4.53951319        2       0.00000000      -0.00000000      -0.02436867       0.01542207
Pd       2.71417178       1.56702781       4.53572340        2       0.00000000      -0.00332433      -0.00191930      -0.02211648
Pd       5.42911035       1.56702781       4.53572340        2       0.00000000       0.00332433      -0.00191930      -0.02211648
Pd       1.35766994       3.91767502       4.53453975        2       0.00000000       0.00000420      -0.00000243      -0.03997376
Pd       4.07164106       3.91823357       4.53572340        2       0.00000000       0.00000000       0.00383860      -0.02211648
Pd       6.78561219       3.91767502       4.53453975        2       0.00000000      -0.00000420      -0.00000243      -0.03997376
Pd       2.71878183       6.27121555       4.53951319        2       0.00000000       0.02110389       0.01218433       0.01542207
Pd       5.42450030       6.27121555       4.53951319        2       0.00000000      -0.02110389       0.01218433       0.01542207
Pd       8.14328213       6.26922834       4.53453975        2       0.00000000      -0.00000000       0.00000485      -0.03997376
Pd      -0.00000000       0.00000000       6.81002520        3       0.00000000      -0.00000000      -0.00000000      -0.05665242
Pd       2.72175803       0.00058617       6.82195618        3       0.00000000       0.04705011       0.00431909      -0.01404904
Pd       5.42152410       0.00058617       6.82195618        3       0.00000000      -0.04705011       0.00431909      -0.01404904
Pd       1.36138666       2.35681851       6.82195618        3       0.00000000       0.02726550       0.03858704      -0.01404904
Pd       4.07164106       2.35076306       6.82071554        3       0.00000000       0.00000000      -0.00000000      -0.03153095
Pd       6.78189547       2.35681851       6.82195618        3       0.00000000      -0.02726550       0.03858704      -0.01404904
Pd       2.71126969       4.69488451       6.82195618        3       0.00000000      -0.01978461      -0.04290614      -0.01404904
Pd       5.43201244       4.69488451       6.82195618        3       0.00000000       0.01978461      -0.04290614      -0.01404904
Pd       8.14328213       4.70152613       6.82242684        3       0.00000000       0.00000000       0.00000000      -0.01638147
O        0.00000000      -0.00000000       8.83515461        0       0.00000000       0.00000000      -0.00000000       0.05062766
H       -0.00000000      -0.00000000       9.81297892        0       0.00000000      -0.00000000       0.00000000       0.07691878
