38
Lattice="8.143282129841092 -3.9719248023175796e-16 4.2043796269772325e-15 4.071641064920545 7.05228919462624 1.1826840171501552e-15 0.0 0.0 21.817084989057776" Properties=species:S:1:pos:R:3:tags:I:1:initial_magmoms:R:1:forces:R:3 stress="-0.003976710503255796 1.6703016912376654e-06 9.641372582902578e-06 1.6703016912376654e-06 -0.003978639201517595 5.566449056019003e-06 9.641372582902578e-06 5.566449056019003e-06 -0.0010794406163932083" energy=-206.9793617466056 pbc="T T T"
Pd      -0.00000000       0.00000000       0.00000000        0       0.00000000       0.00009104       0.00005256      -0.11256404
Pd       2.71442738      -0.00000000       0.00000000        0       0.00000000      -0.00001264      -0.00239457      -0.11924176
Pd       5.42885475      -0.00000000       0.00000000        0       0.00000000      -0.00011387       0.00006091      -0.11259520
Pd       1.35721369       2.35076306       0.00000000        0       0.00000000      -0.00208008       0.00118634      -0.11924176
Pd       4.07164106       2.35076306       0.00000000        0       0.00000000       0.00205527       0.00118661      -0.11924585
Pd       6.78606844       2.35076306       0.00000000        0       0.00000000      -0.00001556      -0.00101306      -0.11096366
Pd       2.71442738       4.70152613       0.00000000        0       0.00000000      -0.00000419      -0.00012907      -0.11259520
Pd       5.42885475       4.70152613       0.00000000        0       0.00000000      -0.00088511       0.00049306      -0.11096366
Pd       8.14328213       4.70152613       0.00000000        0       0.00000000       0.00086338       0.00049847      -0.11097512
Pd       1.35721369       0.78358769       2.26968927        1       0.00000000      -0.01681662      -0.00970908       0.14923349
Pd       4.07164106       0.78358769       2.26968927        1       0.00000000       0.01696852      -0.00961129       0.14933860
Pd       6.78606844       0.78358769       2.26968927        1       0.00000000       0.00044492      -0.00437825       0.13924866
Pd       2.71442738       3.13435075       2.26968927        1       0.00000000       0.00016064       0.01950082       0.14933860
Pd       5.42885475       3.13435075       2.26968927        1       0.00000000      -0.01247569      -0.00720284       0.12040786
Pd       8.14328213       3.13435075       2.26968927        1       0.00000000       0.01269594      -0.00736032       0.12032502
Pd       4.07164106       5.48511382       2.26968927        1       0.00000000      -0.00356922       0.00257444       0.13924866
Pd       6.78606844       5.48511382       2.26968927        1       0.00000000      -0.00002626       0.01467517       0.12032502
Pd       9.50049582       5.48511382       2.26968927        1       0.00000000       0.00387156       0.00223525       0.13942173
Pd       0.00688535       1.57207984       4.54373495        2       0.00000000      -0.00204443      -0.00679612       0.00009308
Pd       2.71454977       1.56724604       4.53267836        2       0.00000000      -0.00029736      -0.00017168      -0.01393191
Pd       5.42250221       1.57207474       4.54360426        2       0.00000000       0.00175749      -0.00736183      -0.00127079
Pd       1.35655157       3.90989765       4.54362174        2       0.00000000       0.00551750       0.00522419      -0.00026041
Pd       4.07270777       3.90998729       4.54360426        2       0.00000000      -0.00549679       0.00520294      -0.00127079
Pd       6.78624320       3.91803934       4.52669801        2       0.00000000       0.00031710       0.00018308      -0.04193732
Pd       2.71454949       6.26877201       4.52856846        2       0.00000000       0.00039662       0.00022899      -0.05058908
Pd       5.43654481       6.27221216       4.54373495        2       0.00000000      -0.00690783       0.00162753       0.00009308
Pd       8.13598754       6.27214849       4.54362174        2       0.00000000       0.00728303       0.00216620      -0.00026041
Pd      -0.01074782      -0.00620526       6.82182393        3       0.00000000       0.00516220       0.00298040      -0.00580686
Pd       2.71470538      -0.04126426       6.88133569        3       0.00000000       0.00035817      -0.06945775       0.00876707
Pd       5.44034493      -0.00620283       6.82208521        3       0.00000000      -0.00665099       0.00308798      -0.00632344
Pd       1.32161680       2.37163595       6.88133569        3       0.00000000      -0.05997309       0.03503906       0.00876707
Pd       4.10749965       2.37146603       6.88017715        3       0.00000000       0.06084038       0.03512621       0.00987858
Pd       6.78631267       2.35519923       6.80038650        3       0.00000000       0.00170513       0.00065394       0.00388292
Pd       2.71480066       4.71457833       6.82208521        3       0.00000000      -0.00065122      -0.00730392      -0.00632344
Pd       5.43281870       4.69951956       6.80038650        3       0.00000000       0.00141889       0.00114972       0.00388292
Pd       8.13997436       4.69961639       6.80024211        3       0.00000000      -0.00096178      -0.00055529       0.00390750
O        2.71736058       1.56886886       8.24082722        0       0.00000000      -0.00120950      -0.00069831      -0.01809138
H        2.72569117       1.57367853       9.21088066        0       0.00000000      -0.00171552      -0.00099046      -0.09170778
