38
Lattice="8.143282129841092 -3.9719248023175796e-16 4.2043796269772325e-15 4.071641064920545 7.05228919462624 1.1826840171501552e-15 0.0 0.0 21.817084989057776" Properties=species:S:1:pos:R:3:tags:I:1:initial_magmoms:R:1:forces:R:3 stress="-0.0031403430808363483 1.0270576984367404e-05 2.3611031078943626e-05 1.0270576984367404e-05 -0.003454665758409102 0.000306715865930123 2.3611031078943626e-05 0.000306715865930123 -0.0015316370336459235" energy=-207.11354667934964 pbc="T T T"
Pd      -0.00000000       0.00000000       0.00000000        0       0.00000000      -0.00253763      -0.00069448      -0.11462443
Pd       2.71442738      -0.00000000       0.00000000        0       0.00000000       0.00244875      -0.00071141      -0.11471904
Pd       5.42885475      -0.00000000       0.00000000        0       0.00000000      -0.00004710      -0.00271218      -0.10813429
Pd       1.35721369       2.35076306       0.00000000        0       0.00000000      -0.00005319       0.00129657      -0.11412442
Pd       4.07164106       2.35076306       0.00000000        0       0.00000000      -0.00033962      -0.00015346      -0.11170599
Pd       6.78606844       2.35076306       0.00000000        0       0.00000000       0.00026689      -0.00015087      -0.11168223
Pd       2.71442738       4.70152613       0.00000000        0       0.00000000      -0.00087900       0.00132363      -0.11086364
Pd       5.42885475       4.70152613       0.00000000        0       0.00000000      -0.00002773      -0.00152600      -0.11633177
Pd       8.14328213       4.70152613       0.00000000        0       0.00000000       0.00080413       0.00133980      -0.11088852
Pd       1.35721369       0.78358769       2.26968927        1       0.00000000       0.00003162      -0.01049046       0.08693027
Pd       4.07164106       0.78358769       2.26968927        1       0.00000000       0.00279749      -0.04836721       0.12721419
Pd       6.78606844       0.78358769       2.26968927        1       0.00000000      -0.00112170      -0.04856535       0.12830593
Pd       2.71442738       3.13435075       2.26968927        1       0.00000000      -0.00754488       0.01348784       0.07642885
Pd       5.42885475       3.13435075       2.26968927        1       0.00000000       0.00055503       0.00330637       0.07744508
Pd       8.14328213       3.13435075       2.26968927        1       0.00000000       0.00854220       0.01260026       0.07759648
Pd       4.07164106       5.48511382       2.26968927        1       0.00000000      -0.03529150       0.02998278       0.16083794
Pd       6.78606844       5.48511382       2.26968927        1       0.00000000       0.03573339       0.02969687       0.16070959
Pd       9.50049582       5.48511382       2.26968927        1       0.00000000       0.00103901       0.03127555       0.16160503
Pd      -0.00337279       1.56235531       4.52579601        2       0.00000000       0.00525389       0.00526898      -0.00035953
Pd       2.71925720       1.56262027       4.52524261        2       0.00000000      -0.00548504       0.00498594      -0.00042687
Pd       5.42959429       1.56792594       4.52116392        2       0.00000000      -0.00018803      -0.00223261       0.00227990
Pd       1.35791821       3.92409187       4.52254355        2       0.00000000      -0.00000006       0.02271178      -0.00940028
Pd       4.07091787       3.91911881       4.52331714        2       0.00000000      -0.00163640      -0.00264768      -0.00531541
Pd       6.78825459       3.91908747       4.52337339        2       0.00000000       0.00146476      -0.00263603      -0.00535452
Pd       2.72707282       6.27986886       4.56871660        2       0.00000000       0.00389117       0.00670176      -0.00377030
Pd       5.42943754       6.27150849       4.53235200        2       0.00000000       0.00028061      -0.00175388       0.02163885
Pd       8.13227167       6.27983720       4.56828408        2       0.00000000      -0.00332944       0.00655104      -0.00372784
Pd      -0.02018822      -0.01160091       6.90534265        3       0.00000000      -0.00976352       0.01807187      -0.00135765
Pd       2.73810588      -0.01142002       6.90221399        3       0.00000000       0.00907379       0.01815514      -0.00024536
Pd       5.43051387       0.00014879       6.81954946        3       0.00000000      -0.00008999      -0.00110060       0.00430096
Pd       1.35847109       2.37637166       6.76336904        3       0.00000000       0.00032387       0.01496464      -0.01030967
Pd       4.07900773       2.34808006       6.80569727        3       0.00000000       0.00522289       0.01044525       0.00140903
Pd       6.78127883       2.34794632       6.80579549        3       0.00000000      -0.00493361       0.01069589       0.00127364
Pd       2.71394629       4.68666174       6.81704141        3       0.00000000       0.00664731       0.00516407       0.00563954
Pd       5.43013219       4.68400587       6.80294635        3       0.00000000       0.00015647       0.01351669      -0.00123041
Pd       8.14632041       4.68663122       6.81694296        3       0.00000000      -0.00631521       0.00507657       0.00581843
O        1.36154661       0.40840556       8.43611172        0       0.00000000      -0.00172015      -0.09792720       0.01324545
H        1.36518178      -0.38810481       9.00357111        0       0.00000000      -0.00322949      -0.04494987      -0.05810697
