38
Lattice="8.143282129841092 -3.9719248023175796e-16 4.2043796269772325e-15 4.071641064920545 7.05228919462624 1.1826840171501552e-15 0.0 0.0 21.817084989057776" Properties=species:S:1:pos:R:3:tags:I:1:initial_magmoms:R:1:forces:R:3 stress="-0.004010776007806489 2.6145588613929162e-06 4.303429255534635e-06 2.6145588613929162e-06 -0.004013795040331046 2.484586039063847e-06 4.303429255534635e-06 2.484586039063847e-06 -0.0003642735361908192" energy=-207.03697585776956 pbc="T T T"
Pd      -0.00000000       0.00000000       0.00000000        0       0.00000000      -0.00243816      -0.00140767      -0.11795355
Pd       2.71442738      -0.00000000       0.00000000        0       0.00000000       0.00243500      -0.00141584      -0.11796431
Pd       5.42885475      -0.00000000       0.00000000        0       0.00000000      -0.00000517      -0.00241272      -0.11084731
Pd       1.35721369       2.35076306       0.00000000        0       0.00000000      -0.00000865       0.00281669      -0.11796431
Pd       4.07164106       2.35076306       0.00000000        0       0.00000000       0.00018070       0.00010433      -0.11586513
Pd       6.78606844       2.35076306       0.00000000        0       0.00000000      -0.00018155       0.00010095      -0.11584634
Pd       2.71442738       4.70152613       0.00000000        0       0.00000000      -0.00209206       0.00120188      -0.11084731
Pd       5.42885475       4.70152613       0.00000000        0       0.00000000      -0.00000335      -0.00020770      -0.11584634
Pd       8.14328213       4.70152613       0.00000000        0       0.00000000       0.00208511       0.00120384      -0.11085893
Pd       1.35721369       0.78358769       2.26968927        1       0.00000000      -0.00002603      -0.00001503       0.15041872
Pd       4.07164106       0.78358769       2.26968927        1       0.00000000      -0.01145350      -0.03944211       0.15852906
Pd       6.78606844       0.78358769       2.26968927        1       0.00000000       0.01153469      -0.03941380       0.15841081
Pd       2.71442738       3.13435075       2.26968927        1       0.00000000      -0.03988462       0.00980204       0.15852906
Pd       5.42885475       3.13435075       2.26968927        1       0.00000000      -0.00000614      -0.00000354       0.07917053
Pd       8.14328213       3.13435075       2.26968927        1       0.00000000       0.03999052       0.00970183       0.15852895
Pd       4.07164106       5.48511382       2.26968927        1       0.00000000      -0.02836601       0.02969624       0.15841081
Pd       6.78606844       5.48511382       2.26968927        1       0.00000000       0.02839729       0.02978190       0.15852895
Pd       9.50049582       5.48511382       2.26968927        1       0.00000000       0.00012931       0.00007466       0.22189374
Pd       0.00163958       1.56628206       4.54290361        2       0.00000000       0.00294304      -0.00166979      -0.00496159
Pd       2.71290104       1.56629414       4.54283538        2       0.00000000      -0.00277447      -0.00160184      -0.00492637
Pd       5.42890360       1.56728166       4.52296368        2       0.00000000       0.00008442      -0.00058458      -0.00676741
Pd       1.35727138       3.90326613       4.56646772        2       0.00000000       0.00008633       0.01071285      -0.02429269
Pd       4.07175753       3.91792760       4.52296368        2       0.00000000      -0.00046405       0.00036540      -0.00676741
Pd       6.78608097       3.91794568       4.52292719        2       0.00000000       0.00057521       0.00033210      -0.00671278
Pd       2.72725110       6.27610529       4.56644358        2       0.00000000      -0.00901533      -0.00520501      -0.02382889
Pd       5.42890091       6.27056808       4.54290361        2       0.00000000       0.00002544       0.00338365      -0.00496159
Pd       8.13060438       6.27608762       4.56646772        2       0.00000000       0.00932077      -0.00528166      -0.02429269
Pd      -0.05581425      -0.03222437       6.89960307        3       0.00000000       0.04854398       0.02802688      -0.00784912
Pd       2.77079315      -0.03228161       6.89936682        3       0.00000000      -0.04982345       0.02914243      -0.00764373
Pd       5.42912599       0.00491358       6.81611508        3       0.00000000       0.00055382       0.01136420      -0.00046565
Pd       1.35743988       2.41571806       6.89936682        3       0.00000000       0.00032636      -0.05771959      -0.00764373
Pd       4.08426069       2.35804901       6.81194377        3       0.00000000      -0.01103089      -0.00636869      -0.01417712
Pd       6.77383740       2.35806579       6.81176729        3       0.00000000       0.01081712      -0.00629799      -0.01382985
Pd       2.71881828       4.69930423       6.81611508        3       0.00000000       0.01011859      -0.00520248      -0.00046565
Pd       5.42906358       4.68728238       6.81176729        3       0.00000000      -0.00004566       0.01251689      -0.01382985
Pd       8.13932831       4.69924339       6.81616360        3       0.00000000      -0.00984349      -0.00568314      -0.00053615
O        1.35854751       0.78435777       8.23822260        0       0.00000000       0.00069262       0.00039989      -0.09681156
H        1.36275997       0.78678984       9.20765139        0       0.00000000      -0.00137775      -0.00079545      -0.09766329
