37
Lattice="8.12023694367038 -2.502811802376711e-15 -3.0154273300879247e-16 4.060118471835193 7.032331477967455 9.12873696737661e-17 0.0 0.0 21.94967493036051" Properties=species:S:1:pos:R:3:tags:I:1:initial_magmoms:R:1:forces:R:3 stress="0.0007044975979736169 5.972629913852938e-06 8.325899941723748e-06 5.972629913852938e-06 0.0006976009989964789 4.806960572647674e-06 8.325899941723748e-06 4.806960572647674e-06 -0.0014212342796675048" energy=-235.66019025452005 pbc="T T T"
Pt       0.00000000       0.00000000       0.00000000        0       0.00000000      -0.00348639      -0.00201287      -0.20149230
Pt       2.70674565       0.00000000       0.00000000        0       0.00000000       0.00350830      -0.00202596      -0.20135473
Pt       5.41349130       0.00000000       0.00000000        0       0.00000000       0.00009675       0.00241183      -0.22883162
Pt       1.35337282       2.34411049       0.00000000        0       0.00000000      -0.00000038       0.00405125      -0.20135473
Pt       4.06011847       2.34411049       0.00000000        0       0.00000000       0.00266204       0.00153693      -0.21511917
Pt       6.76686412       2.34411049       0.00000000        0       0.00000000      -0.00277591       0.00148009      -0.21510142
Pt       2.70674565       4.68822099       0.00000000        0       0.00000000       0.00213708      -0.00112213      -0.22883162
Pt       5.41349130       4.68822099       0.00000000        0       0.00000000      -0.00010616      -0.00314405      -0.21510142
Pt       8.12023694       4.68822099       0.00000000        0       0.00000000      -0.00218292      -0.00126031      -0.22878292
Pt       1.35337282       0.78137016       2.31293021        1       0.00000000       0.00008353       0.00004823       0.29396746
Pt       4.06011847       0.78137016       2.31293021        1       0.00000000       0.00025715      -0.10264063       0.27684895
Pt       6.76686412       0.78137016       2.31293021        1       0.00000000      -0.00123332      -0.10273359       0.27587830
Pt       2.70674565       3.12548066       2.31293021        1       0.00000000      -0.08876082       0.05154302       0.27684895
Pt       5.41349130       3.12548066       2.31293021        1       0.00000000       0.00002728       0.00001575       0.16832614
Pt       8.12023694       3.12548066       2.31293021        1       0.00000000       0.08829925       0.05233966       0.27644515
Pt       4.06011847       5.46959115       2.31293021        1       0.00000000      -0.08958656       0.05029871       0.27587830
Pt       6.76686412       5.46959115       2.31293021        1       0.00000000       0.08947710       0.05029956       0.27644515
Pt       9.47360977       5.46959115       2.31293021        1       0.00000000       0.00004776       0.00002757       0.45090959
Pt       0.00504992       1.55994044       4.61625526        2       0.00000000      -0.00878923       0.00659623      -0.06656467
Pt       2.70145796       1.55968748       4.61649620        2       0.00000000       0.01175137       0.00678466      -0.07013054
Pt       5.41338328       1.56162594       4.58714293        2       0.00000000       0.00175841       0.00100001      -0.00270178
Pt       1.35354127       3.89127021       4.63967162        2       0.00000000       0.00104117      -0.01421931       0.00103834
Pt       4.05909937       3.90731448       4.58714293        2       0.00000000       0.00174524       0.00102282      -0.00270178
Pt       6.76783748       3.90741279       4.58721664        2       0.00000000       0.00104614       0.00060399      -0.00271509
Pt       2.72102555       6.25920582       4.63965439        2       0.00000000       0.00952340       0.00549834      -0.00266087
Pt       5.41359149       6.25673462       4.61625526        2       0.00000000       0.00131789      -0.01090981      -0.06656467
Pt       8.10682796       6.25889750       4.63967162        2       0.00000000      -0.01179370       0.00801134       0.00103834
Pt      -0.04658061      -0.02689333       7.06697969        3       0.00000000      -0.03406907      -0.01966979      -0.07860122
Pt       2.75796672      -0.02711759       7.06604689        3       0.00000000       0.03353873      -0.02514521      -0.07701362
Pt       5.41635184       0.00606721       6.94543651        3       0.00000000      -0.01182666      -0.00916473      -0.02772777
Pt       1.35549884       2.40202804       7.06604689        3       0.00000000      -0.00500702       0.04161800      -0.07701362
Pt       4.06909500       2.34929310       6.92660253        3       0.00000000       0.01164627       0.00672398      -0.00708931
Pt       6.76039830       2.34954104       6.92716775        3       0.00000000      -0.00161044       0.00384032      -0.00903384
Pt       2.71343028       4.68766469       6.94543651        3       0.00000000      -0.01385022      -0.00565982      -0.02772777
Pt       5.41496138       4.67990615       6.92716775        3       0.00000000       0.00252060      -0.00331484      -0.00903384
Pt       8.11716051       4.68644481       6.94533612        3       0.00000000       0.01192371       0.00688416      -0.02733123
O        1.35593021       0.78284667       8.29271537        0       0.00000000       0.00066961       0.00038660      -0.08304311
