36
Lattice="8.530808755166998 -2.5386237190646034e-15 -3.9793378221843725e-15 4.2654043775835015 7.387897096801325 -2.397330953518344e-16 0.0 0.0 22.28977243571786" Properties=species:S:1:pos:R:3:tags:I:1:initial_magmoms:R:1:forces:R:3 stress="0.003803847944698225 -6.184689571791056e-18 2.9499614002352546e-18 -6.184689571791056e-18 0.003803847944698414 -1.2872531451037574e-18 2.9499614002352546e-18 -1.2872531451037574e-18 -0.004235351560020429" energy=-128.312399505907 pbc="T T T"
Au       0.00000000       0.00000000       0.00000000        0       0.00000000       0.00000000       0.00000000      -0.15974679
Au       2.84360292       0.00000000       0.00000000        0       0.00000000       0.00000000       0.00000000      -0.15974679
Au       5.68720584       0.00000000       0.00000000        0       0.00000000      -0.00000000       0.00000000      -0.15974679
Au       1.42180146       2.46263237       0.00000000        0       0.00000000       0.00000000      -0.00000000      -0.15974679
Au       4.26540438       2.46263237       0.00000000        0       0.00000000       0.00000000       0.00000000      -0.15974679
Au       7.10900730       2.46263237       0.00000000        0       0.00000000      -0.00000000       0.00000000      -0.15974679
Au       2.84360292       4.92526473       0.00000000        0       0.00000000       0.00000000      -0.00000000      -0.15974679
Au       5.68720584       4.92526473       0.00000000        0       0.00000000       0.00000000      -0.00000000      -0.15974679
Au       8.53080876       4.92526473       0.00000000        0       0.00000000      -0.00000000      -0.00000000      -0.15974679
Au       1.42180146       0.82087746       2.43012302        1       0.00000000       0.00000000       0.00000000       0.13863315
Au       4.26540438       0.82087746       2.43012302        1       0.00000000       0.00000000       0.00000000       0.13863315
Au       7.10900730       0.82087746       2.43012302        1       0.00000000      -0.00000000       0.00000000       0.13863315
Au       2.84360292       3.28350982       2.43012302        1       0.00000000       0.00000000      -0.00000000       0.13863315
Au       5.68720584       3.28350982       2.43012302        1       0.00000000       0.00000000       0.00000000       0.13863315
Au       8.53080876       3.28350982       2.43012302        1       0.00000000      -0.00000000       0.00000000       0.13863315
Au       4.26540438       5.74614219       2.43012302        1       0.00000000       0.00000000      -0.00000000       0.13863315
Au       7.10900730       5.74614219       2.43012302        1       0.00000000      -0.00000000      -0.00000000       0.13863315
Au       9.95261021       5.74614219       2.43012302        1       0.00000000      -0.00000000      -0.00000000       0.13863315
Au       0.00000000       1.64175491       4.84991507        2       0.00000000       0.00000000       0.00000000      -0.07344043
Au       2.84360292       1.64175491       4.84991507        2       0.00000000      -0.00000000       0.00000000      -0.07344043
Au       5.68720584       1.64175491       4.84991507        2       0.00000000      -0.00000000       0.00000000      -0.07344043
Au       1.42180146       4.10438728       4.84991507        2       0.00000000       0.00000000       0.00000000      -0.07344043
Au       4.26540438       4.10438728       4.84991507        2       0.00000000       0.00000000      -0.00000000      -0.07344043
Au       7.10900730       4.10438728       4.84991507        2       0.00000000       0.00000000      -0.00000000      -0.07344043
Au       2.84360292       6.56701964       4.84991507        2       0.00000000       0.00000000      -0.00000000      -0.07344043
Au       5.68720584       6.56701964       4.84991507        2       0.00000000       0.00000000      -0.00000000      -0.07344043
Au       8.53080876       6.56701964       4.84991507        2       0.00000000      -0.00000000       0.00000000      -0.07344043
Au       0.00000000       0.00000000       7.29885466        3       0.00000000       0.00000000       0.00000000       0.09455406
Au       2.84360292       0.00000000       7.29885466        3       0.00000000       0.00000000       0.00000000       0.09455406
Au       5.68720584       0.00000000       7.29885466        3       0.00000000       0.00000000       0.00000000       0.09455406
Au       1.42180146       2.46263237       7.29885466        3       0.00000000       0.00000000       0.00000000       0.09455406
Au       4.26540438       2.46263237       7.29885466        3       0.00000000       0.00000000       0.00000000       0.09455406
Au       7.10900730       2.46263237       7.29885466        3       0.00000000      -0.00000000       0.00000000       0.09455406
Au       2.84360292       4.92526473       7.29885466        3       0.00000000      -0.00000000      -0.00000000       0.09455406
Au       5.68720584       4.92526473       7.29885466        3       0.00000000      -0.00000000      -0.00000000       0.09455406
Au       8.53080876       4.92526473       7.29885466        3       0.00000000      -0.00000000      -0.00000000       0.09455406
