38
Lattice="8.530808755166998 -2.5386237190646034e-15 -3.9793378221843725e-15 4.2654043775835015 7.387897096801325 -2.397330953518344e-16 0.0 0.0 22.28977243571786" Properties=species:S:1:pos:R:3:tags:I:1:initial_magmoms:R:1:forces:R:3 stress="0.0029429537749506365 -3.1405133944784016e-07 -2.71179323677427e-06 -3.1405133944784016e-07 0.0029433164102015148 -1.5656545552192489e-06 -2.71179323677427e-06 -1.5656545552192489e-06 -0.0008993466324993139" energy=-137.66512858692238 pbc="T T T"
Au       0.00000000       0.00000000       0.00000000        0       0.00000000      -0.00231334      -0.00133561      -0.15557436
Au       2.84360292       0.00000000       0.00000000        0       0.00000000       0.00231345      -0.00133038      -0.15549626
Au       5.68720584       0.00000000       0.00000000        0       0.00000000      -0.00000182      -0.00220843      -0.17089944
Au       1.42180146       2.46263237       0.00000000        0       0.00000000       0.00000458       0.00266870      -0.15549626
Au       4.26540438       2.46263237       0.00000000        0       0.00000000       0.00077315       0.00044638      -0.16341226
Au       7.10900730       2.46263237       0.00000000        0       0.00000000      -0.00077130       0.00041329      -0.16339143
Au       2.84360292       4.92526473       0.00000000        0       0.00000000      -0.00191347       0.00110264      -0.17089944
Au       5.68720584       4.92526473       0.00000000        0       0.00000000      -0.00002773      -0.00087461      -0.16339143
Au       8.53080876       4.92526473       0.00000000        0       0.00000000       0.00194940       0.00112549      -0.17076829
Au       1.42180146       0.82087746       2.43012302        1       0.00000000       0.00015132       0.00008736       0.31151893
Au       4.26540438       0.82087746       2.43012302        1       0.00000000      -0.06204485      -0.02429782       0.21495401
Au       7.10900730       0.82087746       2.43012302        1       0.00000000       0.06190669      -0.02355761       0.21411094
Au       2.84360292       3.28350982       2.43012302        1       0.00000000      -0.05206495      -0.04158351       0.21495401
Au       5.68720584       3.28350982       2.43012302        1       0.00000000      -0.00005664      -0.00003270       0.10005901
Au       8.53080876       3.28350982       2.43012302        1       0.00000000       0.05204802      -0.04146056       0.21501208
Au       4.26540438       5.74614219       2.43012302        1       0.00000000       0.01055185       0.06539157       0.21411094
Au       7.10900730       5.74614219       2.43012302        1       0.00000000      -0.00988189       0.06580518       0.21501208
Au       9.95261021       5.74614219       2.43012302        1       0.00000000      -0.00085562      -0.00049399       0.30023774
Au       0.01182271       1.63497352       4.91097484        2       0.00000000      -0.00577584       0.00339415      -0.04257514
Au       2.83178160       1.63492987       4.91110206        2       0.00000000       0.00574487       0.00331680      -0.04280634
Au       5.68719609       1.63833653       4.83349857        2       0.00000000      -0.00011986      -0.00065311      -0.01045675
Au       1.42177791       4.08925816       4.87931760        2       0.00000000       0.00000923       0.00114438      -0.02738275
Au       4.26243910       4.10608803       4.83349857        2       0.00000000      -0.00062554       0.00022275      -0.01045675
Au       7.11190137       4.10605817       4.83347764        2       0.00000000       0.00065740       0.00037955      -0.01053122
Au       2.85634746       6.57437771       4.87840076        2       0.00000000      -0.00104978      -0.00060609      -0.02704333
Au       5.68724433       6.58064910       4.91097484        2       0.00000000       0.00005150      -0.00669910      -0.04257514
Au       8.51769478       6.57456380       4.87931760        2       0.00000000       0.00099567      -0.00056420      -0.02738275
Au      -0.07654945      -0.04419585       7.42547967        3       0.00000000      -0.04763250      -0.02750064      -0.08182409
Au       2.92095860      -0.04456723       7.42763231        3       0.00000000       0.04670083      -0.02690021      -0.08068762
Au       5.68759128       0.00498536       7.31693187        3       0.00000000      -0.00030281       0.00345094       0.00074397
Au       1.42188295       2.55190796       7.42763231        3       0.00000000       0.00005415       0.05389421      -0.08068762
Au       4.27637616       2.46896693       7.30777439        3       0.00000000       0.00680084       0.00392647       0.01173771
Au       7.09817383       2.46894372       7.30793841        3       0.00000000      -0.00632714       0.00389414       0.01112681
Au       2.84811309       4.92310585       7.31693187        3       0.00000000       0.00283719      -0.00198771       0.00074397
Au       5.68725490       4.91272699       7.30793841        3       0.00000000       0.00020885      -0.00742653       0.01112681
Au       8.52662406       4.92284870       7.31668203        3       0.00000000      -0.00264860      -0.00152917       0.00096424
O        1.42407953       0.82219270       9.01650927        0       0.00000000      -0.00068533      -0.00039568      -0.04364856
H        1.42937017       0.82524726       9.99349570        0       0.00000000       0.00134004       0.00077368      -0.03902602
