37
Lattice="8.12023694367038 -2.502811802376711e-15 -3.0154273300879247e-16 4.060118471835193 7.032331477967455 9.12873696737661e-17 0.0 0.0 21.94967493036051" Properties=species:S:1:pos:R:3:tags:I:1:initial_magmoms:R:1:forces:R:3 stress="0.00039537912947385304 3.790391322995023e-05 -1.129480702154459e-05 3.790391322995023e-05 0.0003516114604605568 -6.521059874332501e-06 -1.129480702154459e-05 -6.521059874332501e-06 -0.0031289458522147685" energy=-235.56201571238137 pbc="T T T"
Pt       0.00000000       0.00000000       0.00000000        0       0.00000000       0.00524650       0.00302907      -0.22137619
Pt       2.70674565       0.00000000       0.00000000        0       0.00000000      -0.00012065       0.00119962      -0.20333136
Pt       5.41349130       0.00000000       0.00000000        0       0.00000000      -0.00570092       0.00325157      -0.22198447
Pt       1.35337282       2.34411049       0.00000000        0       0.00000000       0.00097857      -0.00070430      -0.20333136
Pt       4.06011847       2.34411049       0.00000000        0       0.00000000      -0.00114985      -0.00066387      -0.20392512
Pt       6.76686412       2.34411049       0.00000000        0       0.00000000      -0.00017845      -0.00694946      -0.21314773
Pt       2.70674565       4.68822099       0.00000000        0       0.00000000      -0.00003452      -0.00656293      -0.22198447
Pt       5.41349130       4.68822099       0.00000000        0       0.00000000      -0.00610763       0.00332018      -0.21314773
Pt       8.12023694       4.68822099       0.00000000        0       0.00000000       0.00601054       0.00347018      -0.21290674
Pt       1.35337282       0.78137016       2.31293021        1       0.00000000      -0.06409929      -0.03700774       0.22950124
Pt       4.06011847       0.78137016       2.31293021        1       0.00000000       0.06735457      -0.04035748       0.23018270
Pt       6.76686412       0.78137016       2.31293021        1       0.00000000       0.00061147       0.00039952       0.22500183
Pt       2.70674565       3.12548066       2.31293021        1       0.00000000      -0.00127332       0.07850951       0.23018270
Pt       5.41349130       3.12548066       2.31293021        1       0.00000000      -0.04814047      -0.02779392       0.21588916
Pt       8.12023694       3.12548066       2.31293021        1       0.00000000       0.05114253      -0.02768429       0.21831808
Pt       4.06011847       5.46959115       2.31293021        1       0.00000000       0.00065173       0.00032979       0.22500183
Pt       6.76686412       5.46959115       2.31293021        1       0.00000000       0.00159597       0.05813288       0.21831808
Pt       9.47360977       5.46959115       2.31293021        1       0.00000000      -0.00142737      -0.00082409       0.22778822
Pt       0.01161177       1.56829223       4.61170822        2       0.00000000      -0.00284939       0.00643393       0.00438852
Pt       2.70779649       1.56334703       4.60129405        2       0.00000000      -0.00438789      -0.00253335      -0.05276840
Pt       5.40441287       1.56859770       4.61118195        2       0.00000000      -0.00112362       0.00421276       0.00362224
Pt       1.35506341       3.89542140       4.61243634        2       0.00000000      -0.00070161       0.00042317       0.00365548
Pt       4.06065189       3.89605999       4.61118195        2       0.00000000       0.00308655      -0.00307946       0.00362224
Pt       6.76828809       3.90767295       4.57705752        2       0.00000000      -0.00153686      -0.00088731      -0.00383953
Pt       2.70732041       6.25129315       4.58272584        2       0.00000000       0.00358285       0.00206856      -0.01776286
Pt       5.42410527       6.25824146       4.61170822        2       0.00000000       0.00414725      -0.00568462       0.00438852
Pt       8.11118407       6.25814011       4.61243634        2       0.00000000       0.00001567      -0.00081920       0.00365548
Pt      -0.00542913      -0.00313451       6.93886753        3       0.00000000      -0.01443881      -0.00833625      -0.01522472
Pt       2.71063861      -0.03929076       7.03436871        3       0.00000000       0.00365202      -0.00912284      -0.00909170
Pt       5.43017915      -0.00363991       6.93844474        3       0.00000000      -0.01468107      -0.00594575      -0.01149876
Pt       1.32129251       2.36712727       7.03436871        3       0.00000000      -0.00607460       0.00772416      -0.00909170
Pt       4.09571751       2.36466361       7.02920228        3       0.00000000      -0.00341344      -0.00197075       0.02256401
Pt       6.76865132       2.35027200       6.91408668        3       0.00000000       0.01664537      -0.00590937       0.00270354
Pt       2.71193732       4.70449304       6.93844474        3       0.00000000      -0.01248970      -0.00974131      -0.01149876
Pt       5.41972092       4.68668799       6.91408668        3       0.00000000       0.00320502       0.01737000       0.00270354
Pt       8.12184079       4.68914697       6.91476865        3       0.00000000      -0.00605324      -0.00349484       0.00119534
O        2.70463676       1.56152276       8.29046053        0       0.00000000       0.02805613       0.01619821      -0.02677112
