37
Lattice="8.12023694367038 -2.502811802376711e-15 -3.0154273300879247e-16 4.060118471835193 7.032331477967455 9.12873696737661e-17 0.0 0.0 21.94967493036051" Properties=species:S:1:pos:R:3:tags:I:1:initial_magmoms:R:1:forces:R:3 stress="0.0012119974241207622 1.0119112100651687e-16 1.7786214905117165e-17 1.0119112100651687e-16 0.001211997424120738 -1.471608039572807e-17 1.7786214905117165e-17 -1.471608039572807e-17 -0.0016999101239602524" energy=-234.9142947799393 pbc="T T T"
Pt       0.00000000       0.00000000       0.00000000        0       0.00000000       0.00000000       0.00000000      -0.22467717
Pt       2.70674565       0.00000000       0.00000000        0       0.00000000       0.00016381      -0.00179747      -0.21283871
Pt       5.41349130       0.00000000       0.00000000        0       0.00000000      -0.00016381      -0.00179747      -0.21283871
Pt       1.35337282       2.34411049       0.00000000        0       0.00000000      -0.00147475       0.00104060      -0.21283871
Pt       4.06011847       2.34411049       0.00000000        0       0.00000000      -0.00000000       0.00000000      -0.20899061
Pt       6.76686412       2.34411049       0.00000000        0       0.00000000       0.00147475       0.00104060      -0.21283871
Pt       2.70674565       4.68822099       0.00000000        0       0.00000000      -0.00163856       0.00075688      -0.21283871
Pt       5.41349130       4.68822099       0.00000000        0       0.00000000       0.00163856       0.00075688      -0.21283871
Pt       8.12023694       4.68822099       0.00000000        0       0.00000000      -0.00000000      -0.00000000      -0.22518588
Pt       1.35337282       0.78137016       2.31293021        1       0.00000000      -0.01447786      -0.00835879       0.31536282
Pt       4.06011847       0.78137016       2.31293021        1       0.00000000       0.00000000      -0.00802306       0.26376347
Pt       6.76686412       0.78137016       2.31293021        1       0.00000000       0.01447786      -0.00835879       0.31536282
Pt       2.70674565       3.12548066       2.31293021        1       0.00000000      -0.00694817       0.00401153       0.26376347
Pt       5.41349130       3.12548066       2.31293021        1       0.00000000       0.00694817       0.00401153       0.26376347
Pt       8.12023694       3.12548066       2.31293021        1       0.00000000      -0.00000000       0.02278895       0.25208139
Pt       4.06011847       5.46959115       2.31293021        1       0.00000000       0.00000000       0.01671759       0.31536282
Pt       6.76686412       5.46959115       2.31293021        1       0.00000000       0.01973581      -0.01139448       0.25208139
Pt       9.47360977       5.46959115       2.31293021        1       0.00000000      -0.01973581      -0.01139448       0.25208139
Pt       0.00000000       1.55289891       4.62241518        2       0.00000000      -0.00000000      -0.02204522       0.06850680
Pt       2.70679069       1.56276633       4.60661193        2       0.00000000      -0.00127702      -0.00073729      -0.04508260
Pt       5.41344626       1.56276633       4.60661193        2       0.00000000       0.00127702      -0.00073729      -0.04508260
Pt       1.35264547       3.90727076       4.60247699        2       0.00000000      -0.00903792       0.00521804      -0.06810982
Pt       4.06011847       3.90679881       4.60661193        2       0.00000000       0.00000000       0.00147457      -0.04508260
Pt       6.76759147       3.90727076       4.60247699        2       0.00000000       0.00903792       0.00521804      -0.06810982
Pt       2.71526857       6.25588202       4.62241518        2       0.00000000       0.01909172       0.01102261       0.06850680
Pt       5.40496838       6.25588202       4.62241518        2       0.00000000      -0.01909172       0.01102261       0.06850680
Pt       8.12023694       6.25012144       4.60247699        2       0.00000000      -0.00000000      -0.01043609      -0.06810982
Pt       0.00000000       0.00000000       7.04988187        3       0.00000000      -0.00000000       0.00000000       0.09553780
Pt       2.71958042      -0.00009714       6.95132043        3       0.00000000       0.02264187       0.00247661      -0.07710230
Pt       5.40065653      -0.00009714       6.95132043        3       0.00000000      -0.02264187       0.00247661      -0.07710230
Pt       1.35970608       2.35527430       6.95132043        3       0.00000000       0.01346574       0.01837013      -0.07710230
Pt       4.06011847       2.34411049       6.95524029        3       0.00000000       0.00000000       0.00000000      -0.03539598
Pt       6.76053086       2.35527430       6.95132043        3       0.00000000      -0.01346574       0.01837013      -0.07710230
Pt       2.70024413       4.67715432       6.95132043        3       0.00000000      -0.00917613      -0.02084674      -0.07710230
Pt       5.41999281       4.67715432       6.95132043        3       0.00000000       0.00917613      -0.02084674      -0.07710230
Pt       8.12023694       4.68822099       6.95824502        3       0.00000000      -0.00000000      -0.00000000      -0.03125671
O       -0.00000000       0.00000000       8.88165683        0       0.00000000       0.00000000      -0.00000000       0.01004844
