36
Lattice="7.31716277299497 -1.5312158836541236e-14 3.502625384595088e-15 3.6585813864974996 6.336848845039428 1.6265961235805369e-15 3.813175534390073e-15 -1.56778544828649e-16 8.33779733399894" Properties=species:S:1:pos:R:3:tags:I:1:initial_magmoms:R:1:forces:R:3 stress="-0.00013418564787154308 2.874295822317416e-16 1.209436262253995e-16 2.874295822317416e-16 -0.0001341856478704953 -9.138415735073505e-17 1.209436262253995e-16 -9.138415735073505e-17 -0.00011154111187456489" energy=-210.07095239016815 pbc="T T T"
Ni       0.00000000      -0.00000000       0.10453189        4       1.00000000       0.00000000       0.00000000       0.03474513
Ni       2.43905426      -0.00000000       0.10453189        4       1.00000000      -0.00000000      -0.00000000       0.03474513
Ni       4.87810852      -0.00000000       0.10453189        4       1.00000000      -0.00000000       0.00000000       0.03474513
Ni       1.21952713       2.11228295       0.10453189        4       1.00000000       0.00000000      -0.00000000       0.03474513
Ni       3.65858139       2.11228295       0.10453189        4       1.00000000       0.00000000       0.00000000       0.03474513
Ni       6.09763564       2.11228295       0.10453189        4       1.00000000      -0.00000000      -0.00000000       0.03474513
Ni       2.43905426       4.22456590       0.10453189        4       1.00000000       0.00000000      -0.00000000       0.03474513
Ni       4.87810852       4.22456590       0.10453189        4       1.00000000       0.00000000       0.00000000       0.03474513
Ni       7.31716277       4.22456590       0.10453189        4       1.00000000      -0.00000000      -0.00000000       0.03474513
Ni       1.21952713       0.70409432       2.11620462        3       1.00000000       0.00000000       0.00000000      -0.01359697
Ni       3.65858139       0.70409432       2.11620462        3       1.00000000      -0.00000000      -0.00000000      -0.01359697
Ni       6.09763564       0.70409432       2.11620462        3       1.00000000      -0.00000000      -0.00000000      -0.01359697
Ni       2.43905426       2.81637726       2.11620462        3       1.00000000       0.00000000      -0.00000000      -0.01359697
Ni       4.87810852       2.81637726       2.11620462        3       1.00000000      -0.00000000       0.00000000      -0.01359697
Ni       7.31716277       2.81637726       2.11620462        3       1.00000000      -0.00000000       0.00000000      -0.01359697
Ni       3.65858139       4.92866021       2.11620462        3       1.00000000       0.00000000       0.00000000      -0.01359697
Ni       6.09763564       4.92866021       2.11620462        3       1.00000000      -0.00000000       0.00000000      -0.01359697
Ni       8.53668990       4.92866021       2.11620462        3       1.00000000      -0.00000000      -0.00000000      -0.01359697
Ni       0.00000000       1.40818863       4.13714338        2       1.00000000       0.00000000      -0.00000000       0.01359697
Ni       2.43905426       1.40818863       4.13714338        2       1.00000000      -0.00000000      -0.00000000       0.01359697
Ni       4.87810852       1.40818863       4.13714338        2       1.00000000      -0.00000000       0.00000000       0.01359697
Ni       1.21952713       3.52047158       4.13714338        2       1.00000000       0.00000000       0.00000000       0.01359697
Ni       3.65858139       3.52047158       4.13714338        2       1.00000000       0.00000000       0.00000000       0.01359697
Ni       6.09763564       3.52047158       4.13714338        2       1.00000000      -0.00000000       0.00000000       0.01359697
Ni       2.43905426       5.63275453       4.13714338        2       1.00000000       0.00000000      -0.00000000       0.01359697
Ni       4.87810852       5.63275453       4.13714338        2       1.00000000       0.00000000      -0.00000000       0.01359697
Ni       7.31716277       5.63275453       4.13714338        2       1.00000000       0.00000000      -0.00000000       0.01359697
Ni       0.00000000      -0.00000000       6.14881611        1       1.00000000       0.00000000      -0.00000000      -0.03474513
Ni       2.43905426      -0.00000000       6.14881611        1       1.00000000      -0.00000000      -0.00000000      -0.03474513
Ni       4.87810852      -0.00000000       6.14881611        1       1.00000000      -0.00000000       0.00000000      -0.03474513
Ni       1.21952713       2.11228295       6.14881611        1       1.00000000       0.00000000      -0.00000000      -0.03474513
Ni       3.65858139       2.11228295       6.14881611        1       1.00000000      -0.00000000      -0.00000000      -0.03474513
Ni       6.09763564       2.11228295       6.14881611        1       1.00000000      -0.00000000       0.00000000      -0.03474513
Ni       2.43905426       4.22456590       6.14881611        1       1.00000000       0.00000000      -0.00000000      -0.03474513
Ni       4.87810852       4.22456590       6.14881611        1       1.00000000       0.00000000       0.00000000      -0.03474513
Ni       7.31716277       4.22456590       6.14881611        1       1.00000000      -0.00000000      -0.00000000      -0.03474513
