38
Lattice="7.48445684844538 -1.3897408493980594e-14 -7.065633340829903e-16 3.7422284242227066 6.48172976428211 2.5228537460897006e-15 0.0 0.0 21.202961997606344" Properties=species:S:1:pos:R:3:tags:I:1:initial_magmoms:R:1:forces:R:3 stress="-0.0030754636415190745 3.2725478608830644e-05 4.4769248847483396e-05 3.2725478608830644e-05 -0.0031132517692874437 2.5847537873599347e-05 4.4769248847483396e-05 2.5847537873599347e-05 0.00012241498648657943" energy=-153.60865937610293 pbc="T T T"
Cu       0.00000000       0.00000000       0.00000000        0       0.00000000       0.00048903       0.00028234      -0.08102438
Cu       2.49481895       0.00000000       0.00000000        0       0.00000000      -0.00001368       0.00136358      -0.07404561
Cu       4.98963790       0.00000000       0.00000000        0       0.00000000      -0.00048222       0.00023428      -0.08106723
Cu       1.24740947       2.16057659       0.00000000        0       0.00000000       0.00117405      -0.00069364      -0.07404561
Cu       3.74222842       2.16057659       0.00000000        0       0.00000000      -0.00123919      -0.00071545      -0.07418930
Cu       6.23704737       2.16057659       0.00000000        0       0.00000000       0.00006170      -0.00087417      -0.08234815
Cu       2.49481895       4.32115318       0.00000000        0       0.00000000      -0.00003822      -0.00053476      -0.08106723
Cu       4.98963790       4.32115318       0.00000000        0       0.00000000      -0.00072621       0.00049052      -0.08234815
Cu       7.48445685       4.32115318       0.00000000        0       0.00000000       0.00077438       0.00044709      -0.08209415
Cu       1.24740947       0.72019220       2.06931284        1       0.00000000       0.01919334       0.01108128       0.17670857
Cu       3.74222842       0.72019220       2.06931284        1       0.00000000      -0.01830543       0.00976843       0.17726715
Cu       6.23704737       0.72019220       2.06931284        1       0.00000000       0.00198713       0.04598669       0.11012272
Cu       2.49481895       2.88076878       2.06931284        1       0.00000000      -0.00069300      -0.02073718       0.17726715
Cu       4.98963790       2.88076878       2.06931284        1       0.00000000      -0.02409857      -0.01391332       0.07482881
Cu       7.48445685       2.88076878       2.06931284        1       0.00000000       0.02640194      -0.01441185       0.07908276
Cu       3.74222842       5.04134537       2.06931284        1       0.00000000       0.04081920      -0.02127244       0.11012272
Cu       6.23704737       5.04134537       2.06931284        1       0.00000000       0.00071994       0.03007068       0.07908276
Cu       8.73186632       5.04134537       2.06931284        1       0.00000000      -0.04037355      -0.02330968       0.11385708
Cu       0.01206679       1.44613757       4.16294170        2       0.00000000      -0.00233559      -0.00028296      -0.00917447
Cu       2.49550436       1.44078011       4.19565926        2       0.00000000       0.00011127       0.00006424      -0.07722196
Cu       4.98061632       1.44609422       4.16163353        2       0.00000000      -0.00089127      -0.00076049      -0.00864517
Cu       1.24852228       3.58898623       4.16336488        2       0.00000000       0.00355018       0.00375823      -0.01062183
Cu       3.74266249       3.59029315       4.16163353        2       0.00000000      -0.00110424      -0.00039162      -0.00864517
Cu       6.23759250       3.60127571       4.12826043        2       0.00000000       0.00304439       0.00175768      -0.00729983
Cu       2.49518432       5.76174851       4.12104818        2       0.00000000       0.00251397       0.00145144      -0.01008418
Cu       5.00065369       5.76911112       4.16294170        2       0.00000000      -0.00141285      -0.00188120      -0.00917447
Cu       7.47464281       5.76848867       4.16336488        2       0.00000000       0.00502981       0.00119543      -0.01062183
Cu      -0.01757726      -0.01014823       6.21165096        3       0.00000000       0.00612158       0.00353429      -0.01475692
Cu       2.49840142      -0.04946792       6.32964240        3       0.00000000      -0.00538903       0.00816412      -0.01722211
Cu       5.01211202      -0.00985005       6.21162326        3       0.00000000      -0.00106109       0.00053973      -0.01527938
Cu       1.20636023       2.18841306       6.32964240        3       0.00000000       0.00437582      -0.00874909      -0.01722211
Cu       3.78850234       2.18729285       6.32001003        3       0.00000000      -0.01017032      -0.00587184       0.00284176
Cu       6.24066865       2.16630802       6.21919430        3       0.00000000      -0.00695588      -0.00325834      -0.01749084
Cu       2.49752561       4.34554136       6.21162326        3       0.00000000      -0.00006313      -0.00118880      -0.01527938
Cu       4.99641210       4.32142358       6.21919430        3       0.00000000      -0.00629975      -0.00439480      -0.01749084
Cu       7.48354195       4.32062496       6.21977590        3       0.00000000       0.00188806       0.00109007      -0.01677219
O        2.50007314       1.44341790       7.69191718        0       0.00000000       0.01233984       0.00712441      -0.02791557
H        2.52586973       1.45831157       8.66878315        0       0.00000000      -0.00894239      -0.00516289      -0.07803341
