38
Lattice="7.48445684844538 -1.3897408493980594e-14 -7.065633340829903e-16 3.7422284242227066 6.48172976428211 2.5228537460897006e-15 0.0 0.0 21.202961997606344" Properties=species:S:1:pos:R:3:tags:I:1:initial_magmoms:R:1:forces:R:3 stress="-0.002443739605867981 7.69840772923952e-17 1.710284315589688e-17 7.69840772923952e-17 -0.0024437396058681372 1.425373224228118e-16 1.710284315589688e-17 1.425373224228118e-16 -0.001931584859174591" energy=-152.74007192982023 pbc="T T T"
Cu       0.00000000       0.00000000       0.00000000        0       0.00000000       0.00000000       0.00000000      -0.07876697
Cu       2.49481895       0.00000000       0.00000000        0       0.00000000      -0.00076970      -0.00047152      -0.08181227
Cu       4.98963790       0.00000000       0.00000000        0       0.00000000       0.00076970      -0.00047152      -0.08181227
Cu       1.24740947       2.16057659       0.00000000        0       0.00000000      -0.00079320      -0.00043082      -0.08181227
Cu       3.74222842       2.16057659       0.00000000        0       0.00000000       0.00000000       0.00000000      -0.08662425
Cu       6.23704737       2.16057659       0.00000000        0       0.00000000       0.00079320      -0.00043082      -0.08181227
Cu       2.49481895       4.32115318       0.00000000        0       0.00000000      -0.00002349       0.00090234      -0.08181227
Cu       4.98963790       4.32115318       0.00000000        0       0.00000000       0.00002349       0.00090234      -0.08181227
Cu       7.48445685       4.32115318       0.00000000        0       0.00000000      -0.00000000      -0.00000000      -0.08195250
Cu       1.24740947       0.72019220       2.06931284        1       0.00000000      -0.01385312      -0.00799810       0.06820448
Cu       3.74222842       0.72019220       2.06931284        1       0.00000000      -0.00000000      -0.00467019       0.02249884
Cu       6.23704737       0.72019220       2.06931284        1       0.00000000       0.01385312      -0.00799810       0.06820448
Cu       2.49481895       2.88076878       2.06931284        1       0.00000000      -0.00404451       0.00233510       0.02249884
Cu       4.98963790       2.88076878       2.06931284        1       0.00000000       0.00404451       0.00233510       0.02249884
Cu       7.48445685       2.88076878       2.06931284        1       0.00000000      -0.00000000      -0.03059944       0.06431268
Cu       3.74222842       5.04134537       2.06931284        1       0.00000000       0.00000000       0.01599620       0.06820448
Cu       6.23704737       5.04134537       2.06931284        1       0.00000000      -0.02649989       0.01529972       0.06431268
Cu       8.73186632       5.04134537       2.06931284        1       0.00000000       0.02649989       0.01529972       0.06431268
Cu       0.00000000       1.42776207       4.15670301        2       0.00000000       0.00000000       0.00312714       0.05282175
Cu       2.49494106       1.44045489       4.13373181        2       0.00000000       0.00195446       0.00112841       0.00907897
Cu       4.98951579       1.44045489       4.13373181        2       0.00000000      -0.00195446       0.00112841       0.00907897
Cu       1.24692480       3.60124081       4.13364186        2       0.00000000      -0.00297121       0.00171543       0.00470045
Cu       3.74222842       3.60081998       4.13373181        2       0.00000000       0.00000000      -0.00225681       0.00907897
Cu       6.23753205       3.60124081       4.13364186        2       0.00000000       0.00297121       0.00171543       0.00470045
Cu       2.50575020       5.76784873       4.15670301        2       0.00000000      -0.00270818      -0.00156357       0.05282175
Cu       4.97870665       5.76784873       4.15670301        2       0.00000000       0.00270818      -0.00156357       0.05282175
Cu       7.48445685       5.76097791       4.13364186        2       0.00000000       0.00000000      -0.00343086       0.00470045
Cu       0.00000000       0.00000000       6.31293245        3       0.00000000       0.00000000       0.00000000      -0.03131134
Cu       2.50886241       0.00061487       6.21080459        3       0.00000000       0.00259986       0.00373280       0.02112262
Cu       4.97559444       0.00061487       6.21080459        3       0.00000000      -0.00259986       0.00373280       0.02112262
Cu       1.25496369       2.17243115       6.21080459        3       0.00000000       0.00453263       0.00038514       0.02112262
Cu       3.74222842       2.16057659       6.21374861        3       0.00000000      -0.00000000      -0.00000000       0.02408924
Cu       6.22949316       2.17243115       6.21080459        3       0.00000000      -0.00453263       0.00038514       0.02112262
Cu       2.48832971       4.30868375       6.21080459        3       0.00000000       0.00193277      -0.00411795       0.02112262
Cu       4.99612714       4.30868375       6.21080459        3       0.00000000      -0.00193277      -0.00411795       0.02112262
Cu       7.48445685       4.32115318       6.21506494        3       0.00000000       0.00000000      -0.00000000       0.02394879
O       -0.00000000      -0.00000000       8.14531712        0       0.00000000      -0.00000000      -0.00000000      -0.01840911
H        0.00000000       0.00000000       9.12202329        0       0.00000000       0.00000000       0.00000000      -0.05168745
