38
Lattice="7.48445684844538 -1.3897408493980594e-14 -7.065633340829903e-16 3.7422284242227066 6.48172976428211 2.5228537460897006e-15 0.0 0.0 21.202961997606344" Properties=species:S:1:pos:R:3:tags:I:1:initial_magmoms:R:1:forces:R:3 stress="-0.004101107749189356 1.969645476195211e-05 7.177694048203417e-05 1.969645476195211e-05 -0.0025254894908617598 -5.460767409853415e-05 7.177694048203417e-05 -5.460767409853415e-05 -0.0004791917783402381" energy=-153.47139110399854 pbc="T T T"
Cu       0.00000000       0.00000000       0.00000000        0       0.00000000       0.00039625      -0.00006289      -0.07562680
Cu       2.49481895       0.00000000       0.00000000        0       0.00000000      -0.00042322      -0.00009788      -0.07579975
Cu       4.98963790       0.00000000       0.00000000        0       0.00000000       0.00002687      -0.00095095      -0.07982243
Cu       1.24740947       2.16057659       0.00000000        0       0.00000000      -0.00005013      -0.00048530      -0.07983997
Cu       3.74222842       2.16057659       0.00000000        0       0.00000000      -0.00079475      -0.00057559      -0.08356294
Cu       6.23704737       2.16057659       0.00000000        0       0.00000000       0.00085462      -0.00062044      -0.08330278
Cu       2.49481895       4.32115318       0.00000000        0       0.00000000      -0.00018573       0.00048519      -0.08089446
Cu       4.98963790       4.32115318       0.00000000        0       0.00000000      -0.00002124       0.00176675      -0.07939448
Cu       7.48445685       4.32115318       0.00000000        0       0.00000000       0.00020107       0.00046229      -0.08091044
Cu       1.24740947       0.72019220       2.06931284        1       0.00000000      -0.00114159       0.00462491       0.16108589
Cu       3.74222842       0.72019220       2.06931284        1       0.00000000      -0.02068784      -0.01787656       0.08777137
Cu       6.23704737       0.72019220       2.06931284        1       0.00000000       0.02472811      -0.01763503       0.09281524
Cu       2.49481895       2.88076878       2.06931284        1       0.00000000       0.01043645      -0.01966391       0.09323213
Cu       4.98963790       2.88076878       2.06931284        1       0.00000000       0.00121054       0.00793128       0.04169542
Cu       7.48445685       2.88076878       2.06931284        1       0.00000000      -0.00883993      -0.02165128       0.09676595
Cu       3.74222842       5.04134537       2.06931284        1       0.00000000       0.00677722       0.02828803       0.12442306
Cu       6.23704737       5.04134537       2.06931284        1       0.00000000      -0.00523336       0.02766080       0.12403088
Cu       8.73186632       5.04134537       2.06931284        1       0.00000000       0.00167390       0.02554622       0.15538114
Cu      -0.00206300       1.43442473       4.16581580        2       0.00000000       0.01948203       0.00037370       0.00887314
Cu       2.49950104       1.43455183       4.16350396        2       0.00000000      -0.02022404       0.00508673       0.01315463
Cu       4.99072774       1.44167171       4.13200657        2       0.00000000       0.00413249       0.00542951      -0.01497500
Cu       1.24846854       3.59005139       4.13699464        2       0.00000000       0.00177687       0.00507813      -0.00308381
Cu       3.74861663       3.61043156       4.14174278        2       0.00000000      -0.00485454      -0.01109276       0.01102128
Cu       6.23296399       3.61048914       4.14194272        2       0.00000000       0.00633016      -0.01088898       0.01087432
Cu       2.50687326       5.76614821       4.16521241        2       0.00000000      -0.01303707      -0.00761125      -0.01768927
Cu       4.99075321       5.77526279       4.17524547        2       0.00000000      -0.00417904      -0.01535918      -0.00334029
Cu       7.47563096       5.76615875       4.16453460        2       0.00000000       0.00908165      -0.01105718      -0.02844521
Cu      -0.07680383      -0.00858475       6.31768203        3       0.00000000      -0.01184989      -0.00725849      -0.06149656
Cu       2.57245475      -0.00832129       6.30913178        3       0.00000000       0.02783117      -0.00884046      -0.06256623
Cu       4.98882639       0.00146419       6.21326366        3       0.00000000       0.02928850      -0.00224237      -0.02499768
Cu       1.25049933       2.15905247       6.25048376        3       0.00000000      -0.00504946       0.00138419      -0.02390926
Cu       3.76266397       2.17659604       6.21784699        3       0.00000000      -0.02436737      -0.01117911      -0.01805908
Cu       6.22290456       2.17811174       6.21845493        3       0.00000000       0.01598593      -0.02553543      -0.01723175
Cu       2.48181909       4.29425655       6.21931772        3       0.00000000       0.02047517       0.02035491      -0.01650659
Cu       4.99234393       4.31035582       6.24896931        3       0.00000000      -0.00341942       0.01616719      -0.04216608
Cu       7.50403179       4.29585815       6.21925818        3       0.00000000      -0.03027544       0.00572885      -0.01717097
O        1.25664848       0.01443299       7.73376043        0       0.00000000      -0.02497200       0.04063640       0.01171688
H        1.26706053       0.00113455       8.70910940        0       0.00000000      -0.00108293      -0.00632001       0.03795050
