38
Lattice="7.48445684844538 -1.3897408493980594e-14 -7.065633340829903e-16 3.7422284242227066 6.48172976428211 2.5228537460897006e-15 0.0 0.0 21.202961997606344" Properties=species:S:1:pos:R:3:tags:I:1:initial_magmoms:R:1:forces:R:3 stress="-0.003174432057448714 6.8540049172664764e-06 2.9351813575542328e-05 6.8540049172664764e-06 -0.003182346380616801 1.6946277469148782e-05 2.9351813575542328e-05 1.6946277469148782e-05 0.00022421244114807608" energy=-153.6307795299848 pbc="T T T"
Cu       0.00000000       0.00000000       0.00000000        0       0.00000000       0.00029518       0.00017042      -0.07545454
Cu       2.49481895       0.00000000       0.00000000        0       0.00000000      -0.00031997       0.00015684      -0.07554114
Cu       4.98963790       0.00000000       0.00000000        0       0.00000000       0.00002167      -0.00120462      -0.07942758
Cu       1.24740947       2.16057659       0.00000000        0       0.00000000      -0.00002416      -0.00035552      -0.07554114
Cu       3.74222842       2.16057659       0.00000000        0       0.00000000      -0.00182658      -0.00105458      -0.08282644
Cu       6.23704737       2.16057659       0.00000000        0       0.00000000       0.00185667      -0.00107486      -0.08267659
Cu       2.49481895       4.32115318       0.00000000        0       0.00000000      -0.00103239       0.00062108      -0.07942758
Cu       4.98963790       4.32115318       0.00000000        0       0.00000000      -0.00000252       0.00214535      -0.08267659
Cu       7.48445685       4.32115318       0.00000000        0       0.00000000       0.00103525       0.00059770      -0.07943443
Cu       1.24740947       0.72019220       2.06931284        1       0.00000000      -0.00083941      -0.00048464       0.19614862
Cu       3.74222842       0.72019220       2.06931284        1       0.00000000      -0.03454171      -0.01403252       0.11509834
Cu       6.23704737       0.72019220       2.06931284        1       0.00000000       0.03573945      -0.01387187       0.11709420
Cu       2.49481895       2.88076878       2.06931284        1       0.00000000      -0.02942338      -0.02289774       0.11509834
Cu       4.98963790       2.88076878       2.06931284        1       0.00000000       0.00041546       0.00023987       0.01669242
Cu       7.48445685       2.88076878       2.06931284        1       0.00000000       0.02989032      -0.02363830       0.11701343
Cu       3.74222842       5.04134537       2.06931284        1       0.00000000       0.00585634       0.03788721       0.11709420
Cu       6.23704737       5.04134537       2.06931284        1       0.00000000      -0.00552621       0.03770493       0.11701343
Cu       8.73186632       5.04134537       2.06931284        1       0.00000000       0.00106073       0.00061241       0.21133954
Cu       0.00636935       1.43696021       4.17774407        2       0.00000000       0.00200669      -0.00023359      -0.03115945
Cu       2.48893007       1.43698445       4.17661375        2       0.00000000       0.00081751       0.00047199      -0.03031527
Cu       4.98982481       1.43888451       4.13150895        2       0.00000000       0.00185097       0.00134077      -0.00235177
Cu       1.24787358       3.58712526       4.16535558        2       0.00000000       0.00032064       0.00123206      -0.01833172
Cu       3.74102295       3.60187279       4.13150895        2       0.00000000       0.00208662       0.00093260      -0.00235177
Cu       6.23875592       3.60194741       4.13163129        2       0.00000000       0.00041194       0.00023783      -0.00284025
Cu       2.50820168       5.76926409       4.16590602        2       0.00000000      -0.00278582      -0.00160839      -0.01825102
Cu       4.98985714       5.76876568       4.17774407        2       0.00000000       0.00080105       0.00185464      -0.03115945
Cu       7.47270682       5.76885736       4.16535558        2       0.00000000       0.00122732      -0.00033835      -0.01833172
Cu      -0.04539725      -0.02621012       6.32250852        3       0.00000000       0.00404805       0.00233714      -0.01546046
Cu       2.54324311      -0.02575683       6.31794838        3       0.00000000      -0.00778077       0.00135214      -0.00624113
Cu       4.99159419       0.00373119       6.22196210        3       0.00000000      -0.00378889       0.00043026      -0.01931318
Cu       1.24931548       2.21539156       6.31794838        3       0.00000000      -0.00271939      -0.00741441      -0.00624113
Cu       3.76436714       2.17335838       6.21198267        3       0.00000000      -0.00568692      -0.00328334      -0.01918627
Cu       6.21733059       2.17345286       6.21209760        3       0.00000000       0.00799769      -0.00444913      -0.01823334
Cu       2.49902840       4.32098177       6.22196210        3       0.00000000      -0.00152183      -0.00349640      -0.01931318
Cu       4.99093068       4.29763980       6.21209760        3       0.00000000       0.00014579       0.00915077      -0.01823334
Cu       7.48329909       4.32048475       6.22175043        3       0.00000000      -0.00067703      -0.00039088      -0.01897184
O        1.25035566       0.72189318       7.67751475        0       0.00000000       0.00629541       0.00363466      -0.02672608
H        1.26308032       0.72923976       8.65425389        0       0.00000000      -0.00568377      -0.00328153      -0.08657415
