36
Lattice="8.075029797763122 1.117050279802324e-15 -2.7844496532153836e-16 4.03751489888156 6.993180941179185 -4.915159972894024e-16 0.0 0.0 21.671322733040526" Properties=species:S:1:pos:R:3:tags:I:1:initial_magmoms:R:1:forces:R:3 stress="0.01861328648370573 3.250233507456122e-17 1.3127985679657672e-17 3.250233507456122e-17 0.018613286483706085 -1.565656833941172e-16 1.3127985679657672e-17 -1.565656833941172e-16 0.0007222876475056258" energy=-321.06932853822906 pbc="T T T"
Ir       0.00000000      -0.00000000       0.00000000        0       0.00000000       0.00000000      -0.00000000      -0.01775250
Ir       2.69167660      -0.00000000       0.00000000        0       0.00000000       0.00000000      -0.00000000      -0.01775250
Ir       5.38335320      -0.00000000       0.00000000        0       0.00000000      -0.00000000      -0.00000000      -0.01775250
Ir       1.34583830       2.33106031       0.00000000        0       0.00000000       0.00000000      -0.00000000      -0.01775250
Ir       4.03751490       2.33106031       0.00000000        0       0.00000000       0.00000000      -0.00000000      -0.01775250
Ir       6.72919150       2.33106031       0.00000000        0       0.00000000      -0.00000000      -0.00000000      -0.01775250
Ir       2.69167660       4.66212063       0.00000000        0       0.00000000       0.00000000       0.00000000      -0.01775250
Ir       5.38335320       4.66212063       0.00000000        0       0.00000000      -0.00000000       0.00000000      -0.01775250
Ir       8.07502980       4.66212063       0.00000000        0       0.00000000       0.00000000       0.00000000      -0.01775250
Ir       1.34583830       0.77702010       2.21702958        1       0.00000000       0.00000000      -0.00000000       0.09193277
Ir       4.03751490       0.77702010       2.21702958        1       0.00000000       0.00000000      -0.00000000       0.09193277
Ir       6.72919150       0.77702010       2.21702958        1       0.00000000      -0.00000000      -0.00000000       0.09193277
Ir       2.69167660       3.10808042       2.21702958        1       0.00000000      -0.00000000       0.00000000       0.09193277
Ir       5.38335320       3.10808042       2.21702958        1       0.00000000       0.00000000       0.00000000       0.09193277
Ir       8.07502980       3.10808042       2.21702958        1       0.00000000       0.00000000       0.00000000       0.09193277
Ir       4.03751490       5.43914073       2.21702958        1       0.00000000       0.00000000       0.00000000       0.09193277
Ir       6.72919150       5.43914073       2.21702958        1       0.00000000      -0.00000000       0.00000000       0.09193277
Ir       9.42086810       5.43914073       2.21702958        1       0.00000000      -0.00000000       0.00000000       0.09193277
Ir       0.00000000       1.55404021       4.45429315        2       0.00000000       0.00000000      -0.00000000      -0.09193277
Ir       2.69167660       1.55404021       4.45429315        2       0.00000000       0.00000000      -0.00000000      -0.09193277
Ir       5.38335320       1.55404021       4.45429315        2       0.00000000      -0.00000000      -0.00000000      -0.09193277
Ir       1.34583830       3.88510052       4.45429315        2       0.00000000       0.00000000       0.00000000      -0.09193277
Ir       4.03751490       3.88510052       4.45429315        2       0.00000000      -0.00000000       0.00000000      -0.09193277
Ir       6.72919150       3.88510052       4.45429315        2       0.00000000      -0.00000000      -0.00000000      -0.09193277
Ir       2.69167660       6.21616084       4.45429315        2       0.00000000      -0.00000000       0.00000000      -0.09193277
Ir       5.38335320       6.21616084       4.45429315        2       0.00000000      -0.00000000       0.00000000      -0.09193277
Ir       8.07502980       6.21616084       4.45429315        2       0.00000000       0.00000000       0.00000000      -0.09193277
Ir       0.00000000      -0.00000000       6.67132273        3       0.00000000       0.00000000      -0.00000000       0.01775250
Ir       2.69167660      -0.00000000       6.67132273        3       0.00000000       0.00000000      -0.00000000       0.01775250
Ir       5.38335320      -0.00000000       6.67132273        3       0.00000000      -0.00000000      -0.00000000       0.01775250
Ir       1.34583830       2.33106031       6.67132273        3       0.00000000       0.00000000      -0.00000000       0.01775250
Ir       4.03751490       2.33106031       6.67132273        3       0.00000000       0.00000000      -0.00000000       0.01775250
Ir       6.72919150       2.33106031       6.67132273        3       0.00000000      -0.00000000      -0.00000000       0.01775250
Ir       2.69167660       4.66212063       6.67132273        3       0.00000000       0.00000000       0.00000000       0.01775250
Ir       5.38335320       4.66212063       6.67132273        3       0.00000000      -0.00000000       0.00000000       0.01775250
Ir       8.07502980       4.66212063       6.67132273        3       0.00000000       0.00000000       0.00000000       0.01775250
