36
Lattice="7.31716277299497 -1.5312158836541236e-14 3.502625384595088e-15 3.6585813864974996 6.336848845039428 1.6265961235805369e-15 0.0 0.0 21.04428422323305" Properties=species:S:1:pos:R:3:tags:I:1:initial_magmoms:R:1:forces:R:3 stress="0.0028244153739571155 1.2044849216394103e-16 7.97569105715508e-17 1.2044849216394103e-16 0.0028244153739574937 -3.6670949716325854e-17 7.97569105715508e-17 -3.6670949716325854e-17 -0.0020040869127158738" energy=-198.5123396202446 pbc="T T T"
Ni       0.00000000      -0.00000000       0.00000000        0       1.00000000       0.00000000       0.00000000      -0.02960991
Ni       2.43905426      -0.00000000       0.00000000        0       1.00000000      -0.00000000      -0.00000000      -0.02960991
Ni       4.87810852      -0.00000000       0.00000000        0       1.00000000      -0.00000000       0.00000000      -0.02960991
Ni       1.21952713       2.11228295       0.00000000        0       1.00000000       0.00000000       0.00000000      -0.02960991
Ni       3.65858139       2.11228295       0.00000000        0       1.00000000       0.00000000       0.00000000      -0.02960991
Ni       6.09763564       2.11228295       0.00000000        0       1.00000000      -0.00000000      -0.00000000      -0.02960991
Ni       2.43905426       4.22456590       0.00000000        0       1.00000000       0.00000000      -0.00000000      -0.02960991
Ni       4.87810852       4.22456590       0.00000000        0       1.00000000       0.00000000       0.00000000      -0.02960991
Ni       7.31716277       4.22456590       0.00000000        0       1.00000000      -0.00000000      -0.00000000      -0.02960991
Ni       1.21952713       0.70409432       2.01167273        1       1.00000000       0.00000000       0.00000000      -0.02192048
Ni       3.65858139       0.70409432       2.01167273        1       1.00000000      -0.00000000      -0.00000000      -0.02192048
Ni       6.09763564       0.70409432       2.01167273        1       1.00000000      -0.00000000      -0.00000000      -0.02192048
Ni       2.43905426       2.81637726       2.01167273        1       1.00000000      -0.00000000      -0.00000000      -0.02192048
Ni       4.87810852       2.81637726       2.01167273        1       1.00000000      -0.00000000       0.00000000      -0.02192048
Ni       7.31716277       2.81637726       2.01167273        1       1.00000000      -0.00000000       0.00000000      -0.02192048
Ni       3.65858139       4.92866021       2.01167273        1       1.00000000       0.00000000       0.00000000      -0.02192048
Ni       6.09763564       4.92866021       2.01167273        1       1.00000000      -0.00000000       0.00000000      -0.02192048
Ni       8.53668990       4.92866021       2.01167273        1       1.00000000      -0.00000000      -0.00000000      -0.02192048
Ni       0.00000000       1.40818863       4.03261149        2       1.00000000       0.00000000      -0.00000000       0.02192048
Ni       2.43905426       1.40818863       4.03261149        2       1.00000000      -0.00000000      -0.00000000       0.02192048
Ni       4.87810852       1.40818863       4.03261149        2       1.00000000      -0.00000000       0.00000000       0.02192048
Ni       1.21952713       3.52047158       4.03261149        2       1.00000000       0.00000000       0.00000000       0.02192048
Ni       3.65858139       3.52047158       4.03261149        2       1.00000000       0.00000000       0.00000000       0.02192048
Ni       6.09763564       3.52047158       4.03261149        2       1.00000000      -0.00000000       0.00000000       0.02192048
Ni       2.43905426       5.63275453       4.03261149        2       1.00000000       0.00000000      -0.00000000       0.02192048
Ni       4.87810852       5.63275453       4.03261149        2       1.00000000       0.00000000       0.00000000       0.02192048
Ni       7.31716277       5.63275453       4.03261149        2       1.00000000       0.00000000      -0.00000000       0.02192048
Ni       0.00000000      -0.00000000       6.04428422        3       1.00000000       0.00000000      -0.00000000       0.02960991
Ni       2.43905426      -0.00000000       6.04428422        3       1.00000000      -0.00000000      -0.00000000       0.02960991
Ni       4.87810852      -0.00000000       6.04428422        3       1.00000000      -0.00000000      -0.00000000       0.02960991
Ni       1.21952713       2.11228295       6.04428422        3       1.00000000       0.00000000       0.00000000       0.02960991
Ni       3.65858139       2.11228295       6.04428422        3       1.00000000      -0.00000000      -0.00000000       0.02960991
Ni       6.09763564       2.11228295       6.04428422        3       1.00000000      -0.00000000       0.00000000       0.02960991
Ni       2.43905426       4.22456590       6.04428422        3       1.00000000       0.00000000      -0.00000000       0.02960991
Ni       4.87810852       4.22456590       6.04428422        3       1.00000000       0.00000000       0.00000000       0.02960991
Ni       7.31716277       4.22456590       6.04428422        3       1.00000000      -0.00000000      -0.00000000       0.02960991
