20
Lattice="27.84 0.0 0.0 0.0 27.84 0.0 0.0 0.0 27.84" Properties=species:S:1:pos:R:3:initial_magmoms:R:1:forces:R:3 stress="1.764525235321631e-06 -1.100827087604542e-06 -4.059615443360396e-06 -1.100827087604542e-06 8.799344314984668e-06 -4.406122681617203e-06 -4.059615443360396e-06 -4.406122681617203e-06 -1.2326288884003175e-06" energy=-97.26977181861821 pbc="T T T"
Pt      12.00435737      11.98817847      14.11341613       0.00000000       0.00910739      -0.00367464      -0.06379967
Pt      11.96696873      13.90288181      12.08309664       0.00000000       0.01044859      -0.05315719       0.04428744
Pt      10.24920195      13.94775002      14.06927962       0.00000000       0.00725406       0.00678552       0.03954516
Pt      12.04358864      13.94705663      15.93856232       0.00000000      -0.01438542      -0.00117848       0.00320688
Pt      12.00757958      15.84004201      13.95051294       0.00000000       0.00312416      -0.00019295       0.00231748
Pt      13.91226929      11.95460559      12.09640491       0.00000000       0.03711105      -0.00167842       0.02618575
Pt      13.98350299      10.24131467      14.08989568       0.00000000      -0.04052206       0.01838510       0.02940160
Pt      13.94191698      12.04440697      15.94821325       0.00000000       0.03650677       0.01280827       0.01064187
Pt      15.85370806      12.01383668      13.96464402       0.00000000       0.00011369      -0.01205627       0.01525558
Pt      13.89894590      13.87498132      10.29341761       0.00000000      -0.02984446      -0.01461295       0.01683036
Pt      13.86373680      15.79499761      12.02400161       0.00000000       0.01722880      -0.00132343      -0.00778390
Pt      15.80484533      13.85531494      12.03360495       0.00000000       0.01992878       0.02713953      -0.02018176
Pt      13.94442552      13.94148293      14.00832360       0.00000000       0.00135808       0.00277088      -0.01259026
Pt      13.94663245      15.89525948      15.86244098       0.00000000       0.02435015      -0.01376718       0.00774294
Pt      15.89135550      13.94937495      15.87184365       0.00000000      -0.00850372       0.04022900      -0.00927465
Pt      15.84732223      15.84680342      13.90026271       0.00000000      -0.00357887       0.00833619      -0.01463672
Pt      13.99442465      14.00709082      17.65244681       0.00000000       0.00329151      -0.00639452      -0.00595226
Pt      13.92680013      17.59697557      13.89263807       0.00000000      -0.02799852      -0.01198212       0.00516068
Pt      17.60390465      13.93541751      13.90463104       0.00000000      -0.01740558      -0.03156595       0.02150925
O       11.85082493      11.82222860      12.06330679       0.00000000      -0.02758441       0.03512959      -0.08786577
