20
Lattice="27.84 0.0 0.0 0.0 27.84 0.0 0.0 0.0 27.84" Properties=species:S:1:pos:R:3:initial_magmoms:R:1:forces:R:3 stress="-1.4111694343453245e-05 -1.3310829664105429e-05 -4.410773693282312e-18 -1.3310829664105429e-05 -1.41116943434554e-05 -1.5055361732490694e-18 -4.410773693282312e-18 -1.5055361732490694e-18 1.8719474321072133e-05" energy=-97.03224751859433 pbc="T T T"
Pt      11.88009617      11.88009617      13.92000000       0.00000000       0.00881605       0.00881605      -0.00000000
Pt      11.99570788      13.91028472      12.02056478       0.00000000      -0.01164090      -0.00970858       0.02812527
Pt      10.24187137      14.02113668      13.92000000       0.00000000      -0.01483899      -0.00247066       0.00000000
Pt      11.99570788      13.91028472      15.81943522       0.00000000      -0.01164090      -0.00970858      -0.02812527
Pt      12.01268805      15.87818669      13.92000000       0.00000000       0.01063328       0.01050122      -0.00000000
Pt      13.91028472      11.99570788      12.02056478       0.00000000      -0.00970858      -0.01164090       0.02812527
Pt      14.02113668      10.24187137      13.92000000       0.00000000      -0.00247066      -0.01483899       0.00000000
Pt      13.91028472      11.99570788      15.81943522       0.00000000      -0.00970858      -0.01164090      -0.02812527
Pt      15.87818669      12.01268805      13.92000000       0.00000000       0.01050122       0.01063328       0.00000000
Pt      13.90713336      13.90713336      10.26330229       0.00000000      -0.01993417      -0.01993417       0.02378589
Pt      13.92368718      15.83316031      12.01295930       0.00000000      -0.01296122       0.01178710       0.00213122
Pt      15.83316031      13.92368718      12.01295930       0.00000000       0.01178710      -0.01296122       0.00213122
Pt      13.89313853      13.89313853      13.92000000       0.00000000       0.01076089       0.01076089      -0.00000000
Pt      13.92368718      15.83316031      15.82704070       0.00000000      -0.01296122       0.01178710      -0.00213122
Pt      15.83316031      13.92368718      15.82704070       0.00000000       0.01178710      -0.01296122      -0.00213122
Pt      15.84633678      15.84633678      13.92000000       0.00000000       0.00878115       0.00878115       0.00000000
Pt      13.90713336      13.90713336      17.57669771       0.00000000      -0.01993417      -0.01993417      -0.02378589
Pt      13.92794443      17.60855530      13.92000000       0.00000000       0.05663798       0.02109090       0.00000000
Pt      17.60855530      13.92794443      13.92000000       0.00000000       0.02109090       0.05663798       0.00000000
O       10.61871548      10.61871548      13.92000000       0.00000000      -0.02499630      -0.02499630       0.00000000
