20
Lattice="27.84 0.0 0.0 0.0 27.84 0.0 0.0 0.0 27.84" Properties=species:S:1:pos:R:3:initial_magmoms:R:1:forces:R:3 stress="9.0724341474709e-06 -6.551245520150356e-06 -6.551245520151187e-06 -6.551245520150356e-06 5.877900151572257e-06 2.1509121068196464e-06 -6.551245520151187e-06 2.1509121068196464e-06 5.877900151574764e-06" energy=-97.42260908058402 pbc="T T T"
Pt      11.99828801      11.88942123      13.85476611       0.00000000       0.02624806      -0.02799184       0.03980957
Pt      11.99828801      13.85476611      11.88942123       0.00000000       0.02624806       0.03980957      -0.02799184
Pt      10.25755696      13.91825412      13.91825412       0.00000000       0.04252627      -0.03320241      -0.03320241
Pt      11.97008122      13.93954811      15.84594937       0.00000000       0.02391929      -0.00632368       0.01395305
Pt      11.97008122      15.84594937      13.93954811       0.00000000       0.02391929       0.01395305      -0.00632368
Pt      13.99703303      11.97865165      11.97865165       0.00000000       0.02327000      -0.00027814      -0.00027814
Pt      13.97183964      10.22418628      13.88714685       0.00000000      -0.01034436      -0.00529386      -0.00533827
Pt      13.82067800      11.98387750      15.78879309       0.00000000      -0.02867219       0.01858823      -0.03802566
Pt      15.84376723      12.01402295      13.93686018       0.00000000      -0.02640468       0.00678765       0.00588524
Pt      13.97183964      13.88714685      10.22418628       0.00000000      -0.01034436      -0.00533827      -0.00529386
Pt      13.82067800      15.78879309      11.98387750       0.00000000      -0.02867219      -0.03802566       0.01858823
Pt      15.84376723      13.93686018      12.01402295       0.00000000      -0.02640468       0.00588524       0.00678765
Pt      13.88252466      13.91120928      13.91120928       0.00000000       0.02953385      -0.01985103      -0.01985103
Pt      13.90932750      15.82899170      15.82899170       0.00000000       0.01168633       0.00802637       0.00802637
Pt      15.81321654      13.90103245      15.83211880       0.00000000      -0.01055040       0.01309490      -0.01885914
Pt      15.81321654      15.83211880      13.90103245       0.00000000      -0.01055040      -0.01885914       0.01309490
Pt      13.90473019      13.88348400      17.57777608       0.00000000       0.00052984      -0.01794442      -0.01071425
Pt      13.90473019      17.57777608      13.88348400       0.00000000       0.00052984      -0.01071425      -0.01794442
Pt      17.59155739      13.92816634      13.92816634       0.00000000       0.01440510       0.04297662       0.04297662
O       10.56663562      12.50066229      12.50066229       0.00000000      -0.07087268       0.03470108       0.03470108
