39
Lattice="7.31716277299497 -1.5312158836541236e-14 3.502625384595088e-15 3.6585813864974996 6.336848845039428 1.6265961235805369e-15 0.0 0.0 21.04428422323305" Properties=species:S:1:pos:R:3:tags:I:1:initial_magmoms:R:1:forces:R:3 stress="-0.00042584741010790773 -3.1537296748282475e-05 -0.0003927811292996654 -3.1537296748282475e-05 -0.002100618273795823 0.0010057057325009078 -0.0003927811292996654 0.0010057057325009078 -0.0005945762830386874" energy=-216.35261924341077 pbc="T T T"
Ni       0.00000000      -0.00000000       0.00000000        0       1.00000000       0.00128307       0.00132300      -0.02937597
Ni       2.43905426      -0.00000000       0.00000000        0       1.00000000      -0.00087912       0.00060785      -0.02967264
Ni       4.87810852      -0.00000000       0.00000000        0       1.00000000       0.00039723      -0.00108443      -0.01260202
Ni       1.21952713       2.11228295       0.00000000        0       1.00000000      -0.00017403       0.00251121      -0.02025637
Ni       3.65858139       2.11228295       0.00000000        0       1.00000000       0.00055554       0.00285333      -0.02468396
Ni       6.09763564       2.11228295       0.00000000        0       1.00000000      -0.00088408       0.00210541      -0.02763666
Ni       2.43905426       4.22456590       0.00000000        0       1.00000000      -0.00212728       0.00128773      -0.01158138
Ni       4.87810852       4.22456590       0.00000000        0       1.00000000       0.00006089       0.00082230      -0.02951638
Ni       7.31716277       4.22456590       0.00000000        0       1.00000000       0.00270882       0.00194059      -0.01107741
Ni       1.21952713       0.70409432       2.01167273        1       1.00000000      -0.00105298       0.02424034       0.04401654
Ni       3.65858139       0.70409432       2.01167273        1       1.00000000      -0.00883952      -0.01315988      -0.01121135
Ni       6.09763564       0.70409432       2.01167273        1       1.00000000       0.01975810      -0.00021008      -0.00759153
Ni       2.43905426       2.81637726       2.01167273        1       1.00000000      -0.04139994       0.05914508       0.01993518
Ni       4.87810852       2.81637726       2.01167273        1       1.00000000       0.00038313       0.04906689      -0.04040027
Ni       7.31716277       2.81637726       2.01167273        1       1.00000000       0.04078520       0.04550099       0.04140659
Ni       3.65858139       4.92866021       2.01167273        1       1.00000000      -0.00646032       0.04934857       0.01890779
Ni       6.09763564       4.92866021       2.01167273        1       1.00000000       0.01530829       0.04685757       0.03933377
Ni       8.53668990       4.92866021       2.01167273        1       1.00000000       0.00719789       0.00879779       0.04482845
Ni       0.00668622       1.43155500       4.03538165        2       1.00000000      -0.00433556      -0.01701470      -0.00966758
Ni       2.43819242       1.43313498       4.02682017        2       1.00000000      -0.00867197      -0.01388280      -0.00375696
Ni       4.88124543       1.42930969       4.01945229        2       1.00000000      -0.00842414      -0.01690443      -0.00739446
Ni       1.21531592       3.54004675       4.06482723        2       1.00000000      -0.01464595      -0.01201854      -0.00058554
Ni       3.66510485       3.55316478       4.03277269        2       1.00000000      -0.00397534      -0.01052690       0.00778280
Ni       6.09776161       3.54943458       4.03251745        2       1.00000000      -0.00977014      -0.01226607       0.00720986
Ni       2.45321059       5.66305480       4.04909362        2       1.00000000      -0.00908843      -0.01325544      -0.00713999
Ni       4.88154503       5.65490107       4.04504211        2       1.00000000      -0.00616673      -0.02220609       0.01580187
Ni       7.31322213       5.65829308       4.05340335        2       1.00000000      -0.00849016      -0.01494593       0.00419690
Ni      -0.03014652       0.03344999       6.14677146        3       1.00000000      -0.01156111      -0.01374649      -0.01130990
Ni       2.48136505       0.04496013       6.11972942        3       1.00000000      -0.01918552      -0.00169348       0.00074155
Ni       4.88475112       0.03503277       6.02286428        3       1.00000000      -0.01391026      -0.00766875      -0.00042892
Ni       1.22809041       2.19156226       6.15282425        3       1.00000000      -0.01234686      -0.00426992      -0.00610767
Ni       3.67379746       2.14771190       6.00242896        3       1.00000000      -0.01154139      -0.01134229      -0.00623481
Ni       6.08828908       2.13876610       6.00608726        3       1.00000000      -0.01053345      -0.01630493      -0.01920248
Ni       2.42812912       4.26880042       6.02986126        3       1.00000000      -0.01689900      -0.00639874      -0.01304571
Ni       4.85772188       4.22533372       6.08442482        3       1.00000000      -0.01449611      -0.02361202       0.04848446
Ni       7.31828499       4.26391345       6.07376030        3       1.00000000      -0.02390145      -0.00373709       0.02640321
O        1.23295686       0.75185696       7.27132455        0       0.00000000      -0.02887193      -0.00175996      -0.00790787
O        1.64065402      -2.27045436       7.84993877        0       0.00000000       0.19361813      -0.13594028      -0.04332582
H        1.59013376      -1.33652901       8.14894531        0       0.00000000       0.01657650       0.07754060       0.07266468
