38
Lattice="7.979282652125478 4.014786654423154e-15 4.603398524423124e-16 3.9896413260627424 6.910261480717139 4.2885637721088913e-16 0.0 0.0 21.55037188511455" Properties=species:S:1:pos:R:3:tags:I:1:initial_magmoms:R:1:forces:R:3 stress="0.0005578714681366611 3.042987422545952e-16 3.282807509083128e-16 3.042987422545952e-16 0.0005578714681370254 -1.1165444514998783e-17 3.282807509083128e-16 -1.1165444514998783e-17 0.0014319790147019913" energy=-274.4433003260453 pbc="T T T"
Rh      -0.00000000       0.00000000       0.00000000        0       0.00000000      -0.00000000       0.00000000       0.02014539
Rh       2.65976088       0.00000000       0.00000000        0       0.00000000      -0.00238542       0.00170543       0.00999930
Rh       5.31952177       0.00000000       0.00000000        0       0.00000000       0.00238542       0.00170543       0.00999930
Rh       1.32988044       2.30342049       0.00000000        0       0.00000000       0.00028423      -0.00291855       0.00999930
Rh       3.98964133       2.30342049       0.00000000        0       0.00000000      -0.00000000      -0.00000000       0.00823776
Rh       6.64940221       2.30342049       0.00000000        0       0.00000000      -0.00028423      -0.00291855       0.00999930
Rh       2.65976088       4.60684099       0.00000000        0       0.00000000       0.00266965       0.00121312       0.00999930
Rh       5.31952177       4.60684099       0.00000000        0       0.00000000      -0.00266965       0.00121312       0.00999930
Rh       7.97928265       4.60684099       0.00000000        0       0.00000000       0.00000000      -0.00000000       0.02671335
Rh       1.32988044       0.76780683       2.16825338        1       0.00000000      -0.01742302      -0.01005918       0.04339862
Rh       3.98964133       0.76780683       2.16825338        1       0.00000000       0.00000000      -0.01107240      -0.00259451
Rh       6.64940221       0.76780683       2.16825338        1       0.00000000       0.01742302      -0.01005918       0.04339862
Rh       2.65976088       3.07122732       2.16825338        1       0.00000000      -0.00958898       0.00553620      -0.00259451
Rh       5.31952177       3.07122732       2.16825338        1       0.00000000       0.00958898       0.00553620      -0.00259451
Rh       7.97928265       3.07122732       2.16825338        1       0.00000000       0.00000000      -0.03688702       0.05507162
Rh       3.98964133       5.37464782       2.16825338        1       0.00000000      -0.00000000       0.02011837       0.04339862
Rh       6.64940221       5.37464782       2.16825338        1       0.00000000      -0.03194510       0.01844351       0.05507162
Rh       9.30916309       5.37464782       2.16825338        1       0.00000000       0.03194510       0.01844351       0.05507162
Rh      -0.00000000       1.52195554       4.38366423        2       0.00000000      -0.00000000      -0.01833825      -0.01835074
Rh       2.65978881       1.53562978       4.35612091        2       0.00000000       0.00157791       0.00091101      -0.01797289
Rh       5.31949384       1.53562978       4.35612091        2       0.00000000      -0.00157791       0.00091101      -0.01797289
Rh       1.32889965       3.83960041       4.35842640        2       0.00000000       0.00804742      -0.00464618      -0.00621301
Rh       3.98964133       3.83900191       4.35612091        2       0.00000000      -0.00000000      -0.00182201      -0.01797289
Rh       6.65038300       3.83960041       4.35842640        2       0.00000000      -0.00804742      -0.00464618      -0.00621301
Rh       2.67158917       6.14928371       4.38366423        2       0.00000000       0.01588139       0.00916912      -0.01835074
Rh       5.30769348       6.14928371       4.38366423        2       0.00000000      -0.01588139       0.00916912      -0.01835074
Rh       7.97928265       6.14132213       4.35842640        2       0.00000000       0.00000000       0.00929236      -0.00621301
Rh      -0.00000000      -0.00000000       6.56923644        3       0.00000000      -0.00000000      -0.00000000       0.01433006
Rh       2.67498942       0.00190090       6.52011298        3       0.00000000       0.02494915       0.00134570      -0.03958537
Rh       5.30429323       0.00190090       6.52011298        3       0.00000000      -0.02494915       0.00134570      -0.03958537
Rh       1.33914094       2.31565834       6.52011298        3       0.00000000       0.01363999       0.02093375      -0.03958537
Rh       3.98964133       2.30342049       6.52110888        3       0.00000000       0.00000000      -0.00000000      -0.05816513
Rh       6.64014171       2.31565834       6.52011298        3       0.00000000      -0.01363999       0.02093375      -0.03958537
Rh       2.65379285       4.59270224       6.52011298        3       0.00000000      -0.01130917      -0.02227945      -0.03958537
Rh       5.32548980       4.59270224       6.52011298        3       0.00000000       0.01130917      -0.02227945      -0.03958537
Rh       7.97928265       4.60684099       6.52740017        3       0.00000000      -0.00000000       0.00000000      -0.05551727
O        0.00000000       0.00000000       8.56420273        0       0.00000000       0.00000000       0.00000000       0.07635767
H       -0.00000000      -0.00000000       9.53841713        0       0.00000000      -0.00000000      -0.00000000      -0.01460270
