38
Lattice="7.979282652125478 4.014786654423154e-15 4.603398524423124e-16 3.9896413260627424 6.910261480717139 4.2885637721088913e-16 0.0 0.0 21.55037188511455" Properties=species:S:1:pos:R:3:tags:I:1:initial_magmoms:R:1:forces:R:3 stress="-0.0006684760645786145 2.4928318029909444e-07 1.3922587148070877e-06 2.4928318029909444e-07 -0.0006687639120003634 8.038209439356762e-07 1.3922587148070877e-06 8.038209439356762e-07 0.0009883636677484754" energy=-275.3711705623901 pbc="T T T"
Rh      -0.00000000       0.00000000       0.00000000        0       0.00000000       0.00316498       0.00182730      -0.00226568
Rh       2.65976088       0.00000000       0.00000000        0       0.00000000      -0.00316088       0.00182342      -0.00227140
Rh       5.31952177       0.00000000       0.00000000        0       0.00000000       0.00000242       0.00716391       0.01658623
Rh       1.32988044       2.30342049       0.00000000        0       0.00000000      -0.00000131      -0.00364911      -0.00227140
Rh       3.98964133       2.30342049       0.00000000        0       0.00000000       0.00064636       0.00037317       0.00108204
Rh       6.64940221       2.30342049       0.00000000        0       0.00000000      -0.00064136       0.00037818       0.00109247
Rh       2.65976088       4.60684099       0.00000000        0       0.00000000       0.00620533      -0.00357986       0.01658623
Rh       5.31952177       4.60684099       0.00000000        0       0.00000000       0.00000683      -0.00074452       0.00109247
Rh       7.97928265       4.60684099       0.00000000        0       0.00000000      -0.00620570      -0.00358286       0.01657120
Rh       1.32988044       0.76780683       2.16825338        1       0.00000000       0.00002819       0.00001628      -0.06687265
Rh       3.98964133       0.76780683       2.16825338        1       0.00000000      -0.00126111      -0.03861996       0.02116250
Rh       6.64940221       0.76780683       2.16825338        1       0.00000000       0.00132282      -0.03864623       0.02117626
Rh       2.65976088       3.07122732       2.16825338        1       0.00000000      -0.03407642       0.01821783       0.02116250
Rh       5.31952177       3.07122732       2.16825338        1       0.00000000       0.00002990       0.00001726      -0.05284819
Rh       7.97928265       3.07122732       2.16825338        1       0.00000000       0.03413861       0.01820966       0.02115189
Rh       3.98964133       5.37464782       2.16825338        1       0.00000000      -0.03280721       0.02046870       0.02117626
Rh       6.64940221       5.37464782       2.16825338        1       0.00000000       0.03283933       0.02046007       0.02115189
Rh       9.30916309       5.37464782       2.16825338        1       0.00000000       0.00008844       0.00005106       0.17381755
Rh       0.00154478       1.53474136       4.35145085        2       0.00000000       0.00622042      -0.00356944       0.01486220
Rh       2.65825082       1.53474183       4.35144287        2       0.00000000      -0.00626170      -0.00361520       0.01483891
Rh       5.31953556       1.53300551       4.34510813        2       0.00000000      -0.00003305       0.00258665      -0.01520264
Rh       1.32989767       3.82297769       4.38335665        2       0.00000000      -0.00001248       0.00835524      -0.02645588
Rh       3.98738950       3.84035017       4.34510813        2       0.00000000       0.00222358      -0.00132195      -0.01520264
Rh       6.65168030       3.84034941       4.34510202        2       0.00000000      -0.00224842      -0.00129813      -0.01517931
Rh       2.67370292       6.15050409       4.38338186        2       0.00000000      -0.00721218      -0.00416395      -0.02646187
Rh       5.31953872       6.14422862       4.35145085        2       0.00000000       0.00001899       0.00717176       0.01486220
Rh       7.96538596       6.15049781       4.38335665        2       0.00000000       0.00722960      -0.00418843      -0.02645588
Rh      -0.04032835      -0.02328358       6.56339412        3       0.00000000       0.00342075       0.00197497      -0.02634600
Rh       2.70013167      -0.02327041       6.56346399        3       0.00000000      -0.00355830       0.00208775      -0.02635750
Rh       5.31954035       0.00546738       6.53038264        3       0.00000000       0.00002816      -0.00232142       0.00493503
Rh       1.32991307       2.35001783       6.56346399        3       0.00000000       0.00002889      -0.00412545      -0.02635750
Rh       4.00959812       2.31494255       6.50324697        3       0.00000000       0.00076331       0.00044069      -0.00821916
Rh       6.62949519       2.31494261       6.50324731        3       0.00000000      -0.00080695       0.00047453      -0.00823473
Rh       2.66450506       4.60412339       6.53038264        3       0.00000000      -0.00199633       0.00118510       0.00493503
Rh       5.31954670       4.58383994       6.50324731        3       0.00000000       0.00000748      -0.00093610      -0.00823473
Rh       7.97457658       4.60412393       6.53037556        3       0.00000000       0.00201819       0.00116520       0.00492272
O        1.33017240       0.76797539       7.99754391        0       0.00000000       0.00002449       0.00001414       0.02847804
H        1.33146536       0.76872189       8.96763468        0       0.00000000      -0.00017367      -0.00010027      -0.08640649
