38
Lattice="7.979282652125478 4.014786654423154e-15 4.603398524423124e-16 3.9896413260627424 6.910261480717139 4.2885637721088913e-16 0.0 0.0 21.55037188511455" Properties=species:S:1:pos:R:3:tags:I:1:initial_magmoms:R:1:forces:R:3 stress="0.0004835626156821024 -8.285733538198598e-07 2.8554482306667082e-05 -8.285733538198598e-07 -0.0002590899921022585 -0.00014240101753128343 2.8554482306667082e-05 -0.00014240101753128343 -0.0003334962181009548" energy=-275.3993089773342 pbc="T T T"
Rh      -0.00000000       0.00000000       0.00000000        0       0.00000000       0.00220603       0.00057580      -0.00289180
Rh       2.65976088       0.00000000       0.00000000        0       0.00000000      -0.00223192       0.00053734      -0.00308551
Rh       5.31952177       0.00000000       0.00000000        0       0.00000000       0.00005003       0.00650810      -0.00023866
Rh       1.32988044       2.30342049       0.00000000        0       0.00000000      -0.00004691      -0.00818020      -0.01024066
Rh       3.98964133       2.30342049       0.00000000        0       0.00000000       0.00336101      -0.00303958      -0.00220678
Rh       6.64940221       2.30342049       0.00000000        0       0.00000000      -0.00329957      -0.00303827      -0.00208598
Rh       2.65976088       4.60684099       0.00000000        0       0.00000000       0.00606274       0.00031992       0.01908359
Rh       5.31952177       4.60684099       0.00000000        0       0.00000000       0.00003241       0.00137009      -0.00421486
Rh       7.97928265       4.60684099       0.00000000        0       0.00000000      -0.00599626       0.00025244       0.01946358
Rh       1.32988044       0.76780683       2.16825338        1       0.00000000      -0.00004520      -0.01827510      -0.07360407
Rh       3.98964133       0.76780683       2.16825338        1       0.00000000       0.01039801      -0.04358682      -0.01765144
Rh       6.64940221       0.76780683       2.16825338        1       0.00000000      -0.00950920      -0.04382442      -0.01641711
Rh       2.65976088       3.07122732       2.16825338        1       0.00000000      -0.03316629      -0.00513858      -0.02214414
Rh       5.31952177       3.07122732       2.16825338        1       0.00000000       0.00026956      -0.01351856      -0.07314525
Rh       7.97928265       3.07122732       2.16825338        1       0.00000000       0.03364977      -0.00582523      -0.02130055
Rh       3.98964133       5.37464782       2.16825338        1       0.00000000      -0.02139086       0.01147443       0.01847213
Rh       6.64940221       5.37464782       2.16825338        1       0.00000000       0.02156829       0.01110198       0.01798697
Rh       9.30916309       5.37464782       2.16825338        1       0.00000000       0.00121774      -0.00157064       0.12654446
Rh      -0.00050456       1.52208684       4.34782630        2       0.00000000       0.00842461       0.01312676      -0.01023216
Rh       2.66053524       1.52228861       4.34747856        2       0.00000000      -0.00775519       0.01273642      -0.01072474
Rh       5.31964395       1.52861494       4.34335138        2       0.00000000      -0.00012422       0.01074468      -0.01698728
Rh       1.33000444       3.82411445       4.36872290        2       0.00000000       0.00012790       0.04033048      -0.01478395
Rh       3.98596467       3.83412909       4.34178420        2       0.00000000       0.00514168       0.00806715       0.00046530
Rh       6.65320932       3.83404099       4.34173717        2       0.00000000      -0.00421554       0.00844210       0.00066684
Rh       2.67389050       6.14753590       4.37970394        2       0.00000000      -0.00903781      -0.00569915      -0.03065000
Rh       5.31966945       6.14076402       4.35258816        2       0.00000000       0.00033277      -0.01319847       0.01826231
Rh       7.96574149       6.14744429       4.37920675        2       0.00000000       0.00974182      -0.00607864      -0.03081702
Rh      -0.00929213      -0.01379959       6.58589919        3       0.00000000      -0.04319590      -0.01199651      -0.06327663
Rh       2.67059380      -0.01364523       6.58418972        3       0.00000000       0.04049538      -0.01004433      -0.06097370
Rh       5.31989890      -0.00338034       6.52193594        3       0.00000000       0.00047575       0.03716549       0.05521910
Rh       1.33015436       2.33537541       6.49213058        3       0.00000000       0.00098428       0.03203504       0.01691777
Rh       4.00045879       2.30001361       6.50036011        3       0.00000000       0.00212286       0.03367707       0.02277396
Rh       6.63922703       2.29984946       6.50046973        3       0.00000000      -0.00185939       0.03392158       0.02286219
Rh       2.66583637       4.60072926       6.51767468        3       0.00000000      -0.00546798       0.00079369       0.03337406
Rh       5.31980040       4.56588034       6.49805287        3       0.00000000       0.00047106       0.02220031       0.01146316
Rh       7.97359627       4.60067015       6.51757846        3       0.00000000       0.00662360       0.00114925       0.03286224
O        1.33306915       0.44870877       8.11115140        0       0.00000000      -0.00054471      -0.03942451       0.07822089
H        1.34080645      -0.28073732       8.75982772        0       0.00000000      -0.00587036      -0.05409109      -0.00696623
