38
Lattice="7.979282652125478 4.014786654423154e-15 4.603398524423124e-16 3.9896413260627424 6.910261480717139 4.2885637721088913e-16 0.0 0.0 21.55037188511455" Properties=species:S:1:pos:R:3:tags:I:1:initial_magmoms:R:1:forces:R:3 stress="-0.0003819847911099572 1.1098617163198117e-06 3.633793652127711e-06 1.1098617163198117e-06 -0.0003832663490305477 2.0979717432550113e-06 3.633793652127711e-06 2.0979717432550113e-06 0.0010194350361675888" energy=-275.444056602297 pbc="T T T"
Rh      -0.00000000       0.00000000       0.00000000        0       0.00000000       0.01014105       0.00585494       0.00908446
Rh       2.65976088       0.00000000       0.00000000        0       0.00000000       0.00001133      -0.00075360       0.00216171
Rh       5.31952177       0.00000000       0.00000000        0       0.00000000      -0.01013772       0.00584988       0.00907547
Rh       1.32988044       2.30342049       0.00000000        0       0.00000000      -0.00064697       0.00038661       0.00216171
Rh       3.98964133       2.30342049       0.00000000        0       0.00000000       0.00065281       0.00037690       0.00215098
Rh       6.64940221       2.30342049       0.00000000        0       0.00000000       0.00000569       0.00685978       0.00120364
Rh       2.65976088       4.60684099       0.00000000        0       0.00000000      -0.00000271      -0.01170447       0.00907547
Rh       5.31952177       4.60684099       0.00000000        0       0.00000000       0.00594359      -0.00342497       0.00120364
Rh       7.97928265       4.60684099       0.00000000        0       0.00000000      -0.00592869      -0.00342293       0.00121363
Rh       1.32988044       0.76780683       2.16825338        1       0.00000000      -0.04543293      -0.02623072       0.00156196
Rh       3.98964133       0.76780683       2.16825338        1       0.00000000       0.04553635      -0.02620644       0.00151527
Rh       6.64940221       0.76780683       2.16825338        1       0.00000000       0.00015897       0.04234112       0.06283553
Rh       2.65976088       3.07122732       2.16825338        1       0.00000000       0.00007273       0.05253885       0.00151527
Rh       5.31952177       3.07122732       2.16825338        1       0.00000000       0.01206728       0.00696705       0.00130417
Rh       7.97928265       3.07122732       2.16825338        1       0.00000000      -0.01193960       0.00693938       0.00135684
Rh       3.98964133       5.37464782       2.16825338        1       0.00000000       0.03674797      -0.02103289       0.06283553
Rh       6.64940221       5.37464782       2.16825338        1       0.00000000       0.00003988      -0.01380968       0.00135684
Rh       9.30916309       5.37464782       2.16825338        1       0.00000000      -0.03654239      -0.02109776       0.06290775
Rh       0.00919715       1.54191330       4.36832140        2       0.00000000      -0.00345745      -0.00382364      -0.01729398
Rh       2.65978683       1.53562865       4.33140508        2       0.00000000       0.00010885       0.00006285       0.05850167
Rh       5.31042368       1.54190097       4.36827249        2       0.00000000       0.00339895      -0.00375513      -0.01720880
Rh       1.32905633       3.82799711       4.36829369        2       0.00000000       0.00155723       0.00489496      -0.01730254
Rh       3.99053725       3.82801133       4.36827249        2       0.00000000      -0.00155257       0.00482114      -0.01720880
Rh       6.64942875       3.83904948       4.35302466        2       0.00000000      -0.00002940      -0.00001697      -0.02144729
Rh       2.65980650       6.14248098       4.34044980        2       0.00000000      -0.00008913      -0.00005146      -0.00798910
Rh       5.32957599       6.14726980       4.36832140        2       0.00000000      -0.00504010      -0.00108241      -0.01729398
Rh       7.96931223       6.14725947       4.36829369        2       0.00000000       0.00501778      -0.00109888      -0.01730254
Rh      -0.01642590      -0.00948350       6.51025588        3       0.00000000       0.00053170       0.00030698       0.00058658
Rh       2.65985060      -0.05057892       6.56775022        3       0.00000000      -0.00000101       0.00675673      -0.03347206
Rh       5.33605953      -0.00947897       6.51023223        3       0.00000000      -0.00048442       0.00037882       0.00058308
Rh       1.28612267       2.32878765       6.56775022        3       0.00000000       0.00585099      -0.00337924      -0.03347206
Rh       4.03354057       2.32876573       6.56779725        3       0.00000000      -0.00606484      -0.00350154      -0.03346960
Rh       6.64948097       2.30606019       6.52127600        3       0.00000000      -0.00012883       0.00094697       0.00159162
Rh       2.65982074       4.62590259       6.51023223        3       0.00000000       0.00008586      -0.00060892       0.00058308
Rh       5.32184720       4.60558935       6.52127600        3       0.00000000       0.00075568      -0.00058505       0.00159162
Rh       7.97706732       4.60556197       6.52126393        3       0.00000000      -0.00076419      -0.00044121       0.00162719
O        2.66036038       1.53595978       7.96924704        0       0.00000000       0.00008965       0.00005176       0.01914148
H        2.66268109       1.53729964       8.94192257        0       0.00000000      -0.00053140      -0.00030680      -0.08526546
