3
Lattice="15.0 0.0 0.0 0.0 15.0 0.0 0.0 0.0 15.0" Properties=species:S:1:pos:R:3:initial_magmoms:R:1:forces:R:3 energy=-13.433092992025365 free_energy=-13.433092992025365 stress="4.339709884424328e-06 -3.6801572377641158e-06 6.374483961386988e-06 -3.6801572377641158e-06 1.5849893392470374e-06 -2.746341930479734e-06 6.374483961386988e-06 -2.746341930479734e-06 4.758639061048062e-06" pbc="T T T"
O        7.04406630       7.89244492       6.82024081       1.00000000       0.01527568      -0.00529303       0.00917289
O        7.01242723       7.22034217       7.98397481       1.00000000       0.00045868      -0.00779794       0.01350242
H        7.97400647       7.08346291       8.22148438       1.00000000      -0.01573436       0.01309096      -0.02267531
