2
Lattice="15.0 0.0 0.0 0.0 15.0 0.0 0.0 0.0 15.0" Properties=species:S:1:pos:R:3:initial_magmoms:R:1:forces:R:3 stress="5.048255596839163e-09 0.0 0.0 0.0 5.048255596839163e-09 0.0 0.0 0.0 3.0449294007851576e-05" energy=-9.892702029292437 pbc="T T T"
O        7.50000000       7.50000000       6.88323434       0.00000000       0.00000000       0.00000000       0.08329488
O        7.50000000       7.50000000       8.11676566       0.00000000       0.00000000       0.00000000      -0.08329488
