39
Lattice="8.12023694367038 -2.502811802376711e-15 -3.0154273300879247e-16 4.060118471835193 7.032331477967455 9.12873696737661e-17 0.0 0.0 21.94967493036051" Properties=species:S:1:pos:R:3:tags:I:1:initial_magmoms:R:1:forces:R:3 stress="0.0011602368309179371 8.810049983252047e-06 -0.00016936414836691592 8.810049983252047e-06 -0.0003752655715473993 0.0010452630378382898 -0.00016936414836691592 0.0010452630378382898 -0.003166522749289021" energy=-244.39031507947868 pbc="T T T"
Pt       0.00000000       0.00000000       0.00000000        0       0.00000000       0.00113200      -0.00661872      -0.21058847
Pt       2.70674565       0.00000000       0.00000000        0       0.00000000      -0.00176606      -0.00555229      -0.20964415
Pt       5.41349130       0.00000000       0.00000000        0       0.00000000       0.00028803      -0.01120951      -0.19635580
Pt       1.35337282       2.34411049       0.00000000        0       0.00000000       0.00120817       0.00021596      -0.20916077
Pt       4.06011847       2.34411049       0.00000000        0       0.00000000      -0.00178292       0.00261651      -0.21351359
Pt       6.76686412       2.34411049       0.00000000        0       0.00000000       0.00226068       0.00064338      -0.21223528
Pt       2.70674565       4.68822099       0.00000000        0       0.00000000       0.01055345      -0.00231268      -0.22797028
Pt       5.41349130       4.68822099       0.00000000        0       0.00000000      -0.00181400      -0.00553268      -0.21387895
Pt       8.12023694       4.68822099       0.00000000        0       0.00000000      -0.00682194      -0.00087656      -0.21932213
Pt       1.35337282       0.78137016       2.31293021        1       0.00000000       0.01084891       0.00179322       0.18946737
Pt       4.06011847       0.78137016       2.31293021        1       0.00000000      -0.02242232      -0.05756252       0.28982105
Pt       6.76686412       0.78137016       2.31293021        1       0.00000000       0.00401566      -0.03897415       0.24071885
Pt       2.70674565       3.12548066       2.31293021        1       0.00000000       0.01398793       0.02547034       0.13937571
Pt       5.41349130       3.12548066       2.31293021        1       0.00000000      -0.00454293       0.01933543       0.18280838
Pt       8.12023694       3.12548066       2.31293021        1       0.00000000      -0.01956635       0.02956762       0.13050731
Pt       4.06011847       5.46959115       2.31293021        1       0.00000000      -0.07505572       0.04076175       0.23102778
Pt       6.76686412       5.46959115       2.31293021        1       0.00000000       0.08446974       0.06078502       0.27357936
Pt       9.47360977       5.46959115       2.31293021        1       0.00000000      -0.01566413       0.12027385       0.28494758
Pt      -0.00203519       1.58148338       4.59361276        2       0.00000000      -0.00548597       0.00089515       0.00417625
Pt       2.70373061       1.57871307       4.60046700        2       0.00000000       0.00155634       0.00178656       0.00083481
Pt       5.41141661       1.58873109       4.59046944        2       0.00000000      -0.00186790       0.00449379       0.00141540
Pt       1.34980131       3.95246209       4.57145895        2       0.00000000      -0.00197765      -0.00944308       0.00498179
Pt       4.05330319       3.92820567       4.58989371        2       0.00000000      -0.00133901       0.00572532      -0.00196612
Pt       6.76696531       3.92869640       4.59023358        2       0.00000000      -0.00276998       0.00726898       0.00243781
Pt       2.71431049       6.28618875       4.62694538        2       0.00000000      -0.00643672      -0.00070920      -0.00193764
Pt       5.41141575       6.27119217       4.59790730        2       0.00000000      -0.00292298       0.00763185      -0.00303745
Pt       8.09748035       6.29095063       4.64463923        2       0.00000000       0.00304275      -0.00004524      -0.00772664
Pt      -0.02640254       0.04488619       6.99959287        3       0.00000000      -0.00701948      -0.00520731      -0.00315598
Pt       2.71329992       0.04514442       7.04137950        3       0.00000000       0.00354034       0.00037454      -0.01613945
Pt       5.40889483       0.05694329       6.94432173        3       0.00000000      -0.00128247       0.00380063       0.00150727
Pt       1.34785137       2.43319043       6.87186664        3       0.00000000      -0.00176751      -0.00702530       0.01498574
Pt       4.05634112       2.39977821       6.93266763        3       0.00000000       0.00064034       0.00660009       0.00051069
Pt       6.76001578       2.39993171       6.93486537        3       0.00000000      -0.00012922       0.00333805       0.00094877
Pt       2.70427094       4.73629753       6.94801990        3       0.00000000      -0.00755633      -0.00431732      -0.00098810
Pt       5.40699553       4.72149868       6.91952056        3       0.00000000       0.00116725      -0.00034306      -0.00382705
Pt       8.11438583       4.73283650       6.94917833        3       0.00000000       0.00540838      -0.00300151      -0.00354521
O        1.40952473       0.41128347       8.74810826        0       0.00000000       0.02405580      -0.03792022      -0.00025645
O        1.56455210      -0.57302686       9.80207315        0       0.00000000       0.06489965      -0.06384227      -0.04074707
H        2.17000437      -0.05384244      10.37070453        0       0.00000000      -0.04308384      -0.08288441       0.00194465
