36
Lattice="7.48445684844538 -1.3897408493980594e-14 -7.065633340829903e-16 3.7422284242227066 6.48172976428211 2.5228537460897006e-15 -7.692087286502175e-16 3.615528629752619e-15 8.560989524553024" Properties=species:S:1:pos:R:3:tags:I:1:initial_magmoms:R:1:forces:R:3 stress="-0.0001893889469174112 1.5026241083906565e-16 -1.50883366506264e-16 1.5026241083906565e-16 -0.00018938894691786223 4.827596293167307e-17 -1.50883366506264e-16 4.827596293167307e-17 -0.00014599373586739878" energy=-153.1393772121763 pbc="T T T"
Cu       0.00000000       0.00000000       0.10889007        4       0.00000000       0.00000000       0.00000000       0.03627052
Cu       2.49481895       0.00000000       0.10889007        4       0.00000000       0.00000000       0.00000000       0.03627052
Cu       4.98963790       0.00000000       0.10889007        4       0.00000000      -0.00000000       0.00000000       0.03627052
Cu       1.24740947       2.16057659       0.10889007        4       0.00000000       0.00000000       0.00000000       0.03627052
Cu       3.74222842       2.16057659       0.10889007        4       0.00000000       0.00000000       0.00000000       0.03627052
Cu       6.23704737       2.16057659       0.10889007        4       0.00000000      -0.00000000       0.00000000       0.03627052
Cu       2.49481895       4.32115318       0.10889007        4       0.00000000       0.00000000      -0.00000000       0.03627052
Cu       4.98963790       4.32115318       0.10889007        4       0.00000000       0.00000000      -0.00000000       0.03627052
Cu       7.48445685       4.32115318       0.10889007        4       0.00000000      -0.00000000      -0.00000000       0.03627052
Cu       1.24740947       0.72019220       2.17820291        3       0.00000000       0.00000000       0.00000000      -0.02576411
Cu       3.74222842       0.72019220       2.17820291        3       0.00000000      -0.00000000       0.00000000      -0.02576411
Cu       6.23704737       0.72019220       2.17820291        3       0.00000000      -0.00000000       0.00000000      -0.02576411
Cu       2.49481895       2.88076878       2.17820291        3       0.00000000       0.00000000      -0.00000000      -0.02576411
Cu       4.98963790       2.88076878       2.17820291        3       0.00000000      -0.00000000       0.00000000      -0.02576411
Cu       7.48445685       2.88076878       2.17820291        3       0.00000000      -0.00000000      -0.00000000      -0.02576411
Cu       3.74222842       5.04134537       2.17820291        3       0.00000000       0.00000000       0.00000000      -0.02576411
Cu       6.23704737       5.04134537       2.17820291        3       0.00000000      -0.00000000      -0.00000000      -0.02576411
Cu       8.73186632       5.04134537       2.17820291        3       0.00000000      -0.00000000      -0.00000000      -0.02576411
Cu       0.00000000       1.44038439       4.24253923        2       0.00000000       0.00000000       0.00000000       0.02576411
Cu       2.49481895       1.44038439       4.24253923        2       0.00000000      -0.00000000       0.00000000       0.02576411
Cu       4.98963790       1.44038439       4.24253923        2       0.00000000      -0.00000000       0.00000000       0.02576411
Cu       1.24740947       3.60096098       4.24253923        2       0.00000000       0.00000000       0.00000000       0.02576411
Cu       3.74222842       3.60096098       4.24253923        2       0.00000000       0.00000000      -0.00000000       0.02576411
Cu       6.23704737       3.60096098       4.24253923        2       0.00000000      -0.00000000      -0.00000000       0.02576411
Cu       2.49481895       5.76153757       4.24253923        2       0.00000000       0.00000000       0.00000000       0.02576411
Cu       4.98963790       5.76153757       4.24253923        2       0.00000000       0.00000000      -0.00000000       0.02576411
Cu       7.48445685       5.76153757       4.24253923        2       0.00000000      -0.00000000      -0.00000000       0.02576411
Cu       0.00000000       0.00000000       6.31185207        1       0.00000000       0.00000000       0.00000000      -0.03627052
Cu       2.49481895       0.00000000       6.31185207        1       0.00000000      -0.00000000       0.00000000      -0.03627052
Cu       4.98963790       0.00000000       6.31185207        1       0.00000000      -0.00000000       0.00000000      -0.03627052
Cu       1.24740947       2.16057659       6.31185207        1       0.00000000       0.00000000       0.00000000      -0.03627052
Cu       3.74222842       2.16057659       6.31185207        1       0.00000000      -0.00000000       0.00000000      -0.03627052
Cu       6.23704737       2.16057659       6.31185207        1       0.00000000      -0.00000000      -0.00000000      -0.03627052
Cu       2.49481895       4.32115318       6.31185207        1       0.00000000       0.00000000      -0.00000000      -0.03627052
Cu       4.98963790       4.32115318       6.31185207        1       0.00000000       0.00000000      -0.00000000      -0.03627052
Cu       7.48445685       4.32115318       6.31185207        1       0.00000000      -0.00000000      -0.00000000      -0.03627052
