37
Lattice="7.31716277299497 -1.5312158836541236e-14 3.502625384595088e-15 3.6585813864974996 6.336848845039428 1.6265961235805369e-15 0.0 0.0 21.04428422323305" Properties=species:S:1:pos:R:3:tags:I:1:initial_magmoms:R:1:forces:R:3 stress="0.001104993688024327 9.387071801919889e-06 2.200816048007997e-05 9.387071801919889e-06 0.0010941544311613826 1.270641737746514e-05 2.200816048007997e-05 1.270641737746514e-05 0.001573368840748237" energy=-205.85991829766235 pbc="T T T"
Ni       0.00000000      -0.00000000       0.00000000        0       1.00000000       0.00048161       0.00027806      -0.02596437
Ni       2.43905426      -0.00000000       0.00000000        0       1.00000000      -0.00048350       0.00027813      -0.02596076
Ni       4.87810852      -0.00000000       0.00000000        0       1.00000000       0.00003773      -0.00304425      -0.00914856
Ni       1.21952713       2.11228295       0.00000000        0       1.00000000      -0.00000088      -0.00055779      -0.02596076
Ni       3.65858139       2.11228295       0.00000000        0       1.00000000      -0.00055117      -0.00031822      -0.02587706
Ni       6.09763564       2.11228295       0.00000000        0       1.00000000       0.00058113      -0.00031342      -0.02585875
Ni       2.43905426       4.22456590       0.00000000        0       1.00000000      -0.00261753       0.00155480      -0.00914856
Ni       4.87810852       4.22456590       0.00000000        0       1.00000000       0.00001913       0.00065998      -0.02585875
Ni       7.31716277       4.22456590       0.00000000        0       1.00000000       0.00266738       0.00154001      -0.00908863
Ni       1.21952713       0.70409432       2.01167273        1       1.00000000      -0.00001055      -0.00000609       0.15997432
Ni       3.65858139       0.70409432       2.01167273        1       1.00000000      -0.03075327      -0.03075359       0.08177448
Ni       6.09763564       0.70409432       2.01167273        1       1.00000000       0.03097816      -0.03055566       0.08178648
Ni       2.43905426       2.81637726       2.01167273        1       1.00000000      -0.04201003      -0.01125632       0.08177448
Ni       4.87810852       2.81637726       2.01167273        1       1.00000000       0.00015161       0.00008753      -0.03668101
Ni       7.31716277       2.81637726       2.01167273        1       1.00000000       0.04246112      -0.01110948       0.08209735
Ni       3.65858139       4.92866021       2.01167273        1       1.00000000      -0.01097289       0.04210571       0.08178648
Ni       6.09763564       4.92866021       2.01167273        1       1.00000000       0.01160946       0.04232715       0.08209735
Ni       8.53668990       4.92866021       2.01167273        1       1.00000000       0.00068721       0.00039676       0.13515843
Ni       0.00639600       1.40468148       4.05933214        2       1.00000000      -0.01511508       0.01026372      -0.06101388
Ni       2.43280467       1.40458043       4.05930968        2       1.00000000       0.01712289       0.00988590      -0.06262338
Ni       4.87812084       1.40587497       4.02822584        2       1.00000000       0.00120032       0.00112515       0.00628088
Ni       1.21979201       3.50718402       4.06729483        2       1.00000000       0.00038592       0.01123674      -0.03496452
Ni       3.65658385       3.52163908       4.02822584        2       1.00000000       0.00157457       0.00047693       0.00628088
Ni       6.09974931       3.52169191       4.02819535        2       1.00000000       0.00071535       0.00041301       0.00655574
Ni       2.45137069       5.63986543       4.06735219        2       1.00000000      -0.01095604      -0.00632547      -0.03681701
Ni       4.87826924       5.64004720       4.05933214        2       1.00000000       0.00133110      -0.01822190      -0.06101388
Ni       7.30578785       5.63962770       4.06729483        2       1.00000000       0.00992426      -0.00528416      -0.03496452
Ni      -0.03215380      -0.01856400       6.20416059        3       1.00000000       0.04671333       0.02696995      -0.07454156
Ni       2.47410137      -0.01861595       6.20268973        3       1.00000000      -0.04863861       0.02413917      -0.06938714
Ni       4.88004241       0.00096189       6.04567629        3       1.00000000      -0.00901167      -0.00443045      -0.00604376
Ni       1.22092880       2.15194261       6.20268973        3       1.00000000      -0.00341417      -0.05419185      -0.06938714
Ni       3.68035225       2.12485236       6.03014899        3       1.00000000       0.00206892       0.00119449      -0.00429048
Ni       6.07719648       2.12476107       6.03019134        3       1.00000000       0.00209194       0.00139218      -0.00400129
Ni       2.44085423       4.22575975       6.04567629        3       1.00000000      -0.00834271      -0.00558911      -0.00604376
Ni       4.87869531       4.20062600       6.03019134        3       1.00000000       0.00225163       0.00111559      -0.00400129
Ni       7.31721688       4.22459713       6.04547479        3       1.00000000       0.00685221       0.00395612      -0.00518691
O        1.22147801       0.70522066       7.31934256        0       0.00000000       0.00097115       0.00056069      -0.05173913
