21
Lattice="27.84 0.0 0.0 0.0 27.84 0.0 0.0 0.0 27.84" Properties=species:S:1:pos:R:3:initial_magmoms:R:1:forces:R:3 stress="-1.1162717905716915e-07 1.897225819528452e-05 4.612565040171172e-06 1.897225819528452e-05 2.8501781787092017e-06 6.0647285923535195e-06 4.612565040171172e-06 6.0647285923535195e-06 1.0119840174438569e-06" energy=-101.66263385294828 pbc="T T T"
Pt      11.95160578      12.09927117      14.11090056       0.00000000       0.02588039       0.03273106       0.05372767
Pt      11.96138855      14.12592235      12.14265442       0.00000000       0.00512358      -0.01338727       0.00384060
Pt      10.27446404      14.09268554      14.09720503       0.00000000      -0.03472602       0.06398396      -0.01196536
Pt      12.06080940      13.99815349      15.96982536       0.00000000      -0.02476412       0.05812348      -0.02394690
Pt      12.06902099      15.98789559      14.05792270       0.00000000      -0.00386576      -0.00073548       0.02437167
Pt      13.80292416      12.01119971      12.12330451       0.00000000      -0.01459954      -0.00188800       0.02771430
Pt      13.97681045      10.30612253      14.23134612       0.00000000      -0.00183612      -0.01459313      -0.00268256
Pt      13.94921879      12.14223717      16.00782628       0.00000000       0.03621278      -0.00199482      -0.00153750
Pt      15.82818548      12.04890969      14.01504846       0.00000000      -0.00686863       0.00891836       0.01060470
Pt      13.80543441      13.93103520      10.34360895       0.00000000      -0.04028602       0.02549328       0.00338469
Pt      13.96025282      15.89401438      12.06080142       0.00000000      -0.02613748       0.03171229      -0.05152685
Pt      15.75066320      13.81213603      12.04001721       0.00000000       0.03982172       0.02703674      -0.05306742
Pt      13.92773152      14.01022941      14.01637224       0.00000000      -0.03212352      -0.02554251       0.01526227
Pt      14.02022441      15.96743665      15.89119935       0.00000000      -0.02678305      -0.00497362       0.00478645
Pt      15.90846184      14.02567963      15.87389467       0.00000000       0.00050775      -0.05489393       0.01181785
Pt      15.89116609      15.87229656      13.89359324       0.00000000       0.05015188       0.02643442       0.01453286
Pt      14.02572172      14.09965412      17.69014156       0.00000000      -0.01346418      -0.01223898      -0.03538056
Pt      14.03066687      17.69396830      13.94007896       0.00000000      -0.00232517      -0.06599330       0.00564779
Pt      17.60051527      13.92575051      13.87848888       0.00000000      -0.02374613      -0.03386761       0.00286221
O       11.83288112      11.12257585      12.21988073       0.00000000       0.05147901      -0.06759018       0.02725658
H       11.96447647      10.16732933      12.43777595       0.00000000       0.04234863       0.02326524      -0.02570247
