21
Lattice="27.84 0.0 0.0 0.0 27.84 0.0 0.0 0.0 27.84" Properties=species:S:1:pos:R:3:initial_magmoms:R:1:forces:R:3 stress="3.276680016141238e-05 1.5055045132461864e-05 1.505504513245817e-05 1.5055045132461864e-05 -3.4730610993363503e-06 4.461144486104248e-06 1.505504513245817e-05 4.461144486104248e-06 -3.4730610993342496e-06" energy=-101.43903320083578 pbc="T T T"
Pt      12.00755381      11.89010000      13.89366274       0.00000000      -0.02101728       0.04492057      -0.02913162
Pt      12.00755381      13.89366274      11.89010000       0.00000000      -0.02101728      -0.02913162       0.04492057
Pt      10.28531977      13.92637326      13.92637326       0.00000000       0.00549642       0.05968698       0.05968698
Pt      11.96201865      13.94138467      15.84785971       0.00000000       0.03378265      -0.02394776       0.03646554
Pt      11.96201865      15.84785971      13.94138467       0.00000000       0.03378265       0.03646554      -0.02394776
Pt      13.96401321      11.98461574      11.98461574       0.00000000      -0.00284857      -0.01271537      -0.01271537
Pt      13.98119505      10.21727111      13.89510520       0.00000000       0.02491635      -0.01193443      -0.01699975
Pt      13.83013392      11.99487722      15.79499842       0.00000000      -0.01194958      -0.03961550      -0.01231579
Pt      15.84083883      12.01196552      13.92877085       0.00000000      -0.00746005       0.00933463      -0.01378190
Pt      13.98119505      13.89510520      10.21727111       0.00000000       0.02491635      -0.01699975      -0.01193443
Pt      13.83013392      15.79499842      11.99487722       0.00000000      -0.01194958      -0.01231579      -0.03961550
Pt      15.84083883      13.92877085      12.01196552       0.00000000      -0.00746005      -0.01378190       0.00933463
Pt      13.86839893      13.90568317      13.90568317       0.00000000      -0.03156483      -0.00660539      -0.00660539
Pt      13.91030427      15.82643642      15.82643642       0.00000000      -0.02027263       0.01040824       0.01040824
Pt      15.81412123      13.90113214      15.82585217       0.00000000      -0.03161987      -0.00746969       0.00423426
Pt      15.81412123      15.82585217      13.90113214       0.00000000      -0.03161987       0.00423426      -0.00746969
Pt      13.90040503      13.89379666      17.57622982       0.00000000      -0.01527949      -0.03357061       0.00474358
Pt      13.90040503      17.57622982      13.89379666       0.00000000      -0.01527949       0.00474358      -0.03357061
Pt      17.59473416      13.92513612      13.92513612       0.00000000      -0.01240284       0.01640322       0.01640322
O       10.36204148      12.36517539      12.36517539       0.00000000       0.07624133      -0.01793432      -0.01793432
H        9.75767397      11.82108307      11.82108307       0.00000000       0.04260567       0.03982512       0.03982512
