36
Lattice="7.4846239402392785 2.4779678226937893e-34 0.0 3.742311970119648 6.481874470020422 0.0 0.0 0.0 20.98755986535968" Properties=species:S:1:pos:R:3:tags:I:1:initial_magmoms:R:1:forces:R:3 energy=-185.49833235830008 free_energy=-185.49833235830008 stress="0.015420988124019831 3.245096101817541e-16 5.23816527964208e-17 3.245096101817541e-16 0.015420988124021517 -2.1168816915838227e-16 5.23816527964208e-17 -2.1168816915838227e-16 -0.005208015877012745" pbc="T T T"
Ni       0.00000000      -0.00000000       0.10000000        0       1.00000000       0.00000000      -0.00000000      -0.25196876
Ni       2.49487465      -0.00000000       0.10000000        0       1.00000000      -0.00000000       0.00000000      -0.25196876
Ni       4.98974929       0.00000000       0.10000000        0       1.00000000      -0.00000000       0.00000000      -0.25196876
Ni       1.24743732       2.16062482       0.10000000        0       1.00000000       0.00000000      -0.00000000      -0.25196876
Ni       3.74231197       2.16062482       0.10000000        0       1.00000000       0.00000000      -0.00000000      -0.25196876
Ni       6.23718662       2.16062482       0.10000000        0       1.00000000      -0.00000000       0.00000000      -0.25196876
Ni       2.49487465       4.32124965       0.10000000        0       1.00000000       0.00000000      -0.00000000      -0.25196876
Ni       4.98974929       4.32124965       0.10000000        0       1.00000000      -0.00000000      -0.00000000      -0.25196876
Ni       7.48462394       4.32124965       0.10000000        0       1.00000000      -0.00000000       0.00000000      -0.25196876
Ni       1.24743732       0.72020827       2.05723380        1       1.00000000       0.00000000      -0.00000000       0.22360520
Ni       3.74231197       0.72020827       2.05723380        1       1.00000000       0.00000000      -0.00000000       0.22360520
Ni       6.23718662       0.72020827       2.05723380        1       1.00000000      -0.00000000       0.00000000       0.22360520
Ni       2.49487465       2.88083310       2.05723380        1       1.00000000       0.00000000      -0.00000000       0.22360520
Ni       4.98974929       2.88083310       2.05723380        1       1.00000000      -0.00000000       0.00000000       0.22360520
Ni       7.48462394       2.88083310       2.05723380        1       1.00000000      -0.00000000       0.00000000       0.22360520
Ni       3.74231197       5.04145792       2.05723380        1       1.00000000       0.00000000      -0.00000000       0.22360520
Ni       6.23718662       5.04145792       2.05723380        1       1.00000000       0.00000000       0.00000000       0.22360520
Ni       8.73206126       5.04145792       2.05723380        1       1.00000000      -0.00000000       0.00000000       0.22360520
Ni       0.00000000       1.44041655       4.09011219        2       1.00000000       0.00000000      -0.00000000       0.00914653
Ni       2.49487465       1.44041655       4.09011219        2       1.00000000      -0.00000000      -0.00000000       0.00914653
Ni       4.98974929       1.44041655       4.09011219        2       1.00000000       0.00000000      -0.00000000       0.00914653
Ni       1.24743732       3.60104137       4.09011219        2       1.00000000      -0.00000000      -0.00000000       0.00914653
Ni       3.74231197       3.60104137       4.09011219        2       1.00000000       0.00000000      -0.00000000       0.00914653
Ni       6.23718662       3.60104137       4.09011219        2       1.00000000      -0.00000000       0.00000000       0.00914653
Ni       2.49487465       5.76166620       4.09011219        2       1.00000000      -0.00000000       0.00000000       0.00914653
Ni       4.98974929       5.76166620       4.09011219        2       1.00000000       0.00000000       0.00000000       0.00914653
Ni       7.48462394       5.76166620       4.09011219        2       1.00000000      -0.00000000       0.00000000       0.00914653
Ni       0.00000000       0.00000000       6.08719585        3       1.00000000      -0.00000000       0.00000000       0.01921703
Ni       2.49487465       0.00000000       6.08719585        3       1.00000000       0.00000000       0.00000000       0.01921703
Ni       4.98974929       0.00000000       6.08719585        3       1.00000000       0.00000000      -0.00000000       0.01921703
Ni       1.24743732       2.16062482       6.08719585        3       1.00000000      -0.00000000       0.00000000       0.01921703
Ni       3.74231197       2.16062482       6.08719585        3       1.00000000      -0.00000000       0.00000000       0.01921703
Ni       6.23718662       2.16062482       6.08719585        3       1.00000000       0.00000000       0.00000000       0.01921703
Ni       2.49487465       4.32124965       6.08719585        3       1.00000000      -0.00000000      -0.00000000       0.01921703
Ni       4.98974929       4.32124965       6.08719585        3       1.00000000      -0.00000000      -0.00000000       0.01921703
Ni       7.48462394       4.32124965       6.08719585        3       1.00000000       0.00000000      -0.00000000       0.01921703
