39
Lattice="8.51545404474967 -5.95020126642259e-16 6.045666078066302e-16 4.2577270223748345 7.374599527512166 1.4060493190009737e-15 0.0 0.0 22.098036274269273" Properties=species:S:1:pos:R:3:tags:I:1:initial_magmoms:R:1:forces:R:3 stress="-0.0014441319730840417 5.558688820250798e-05 0.0001479384565156954 5.558688820250798e-05 -0.0013763357915592828 -4.058870338872275e-05 0.0001479384565156954 -4.058870338872275e-05 -0.0010004703327640852" energy=-122.45847198534436 pbc="T T T"
Ag      -0.00000000      -0.00000000       0.00000000        0       0.00000000      -0.00018958      -0.00021846      -0.11548288
Ag       2.83848468      -0.00000000       0.00000000        0       0.00000000       0.00017126      -0.00025635      -0.11544153
Ag       5.67696936      -0.00000000       0.00000000        0       0.00000000       0.00001479      -0.00121697      -0.11760055
Ag       1.41924234       2.45819984       0.00000000        0       0.00000000      -0.00000696      -0.00014393      -0.11649347
Ag       4.25772702       2.45819984       0.00000000        0       0.00000000      -0.00086017       0.00034535      -0.11738922
Ag       7.09621170       2.45819984       0.00000000        0       0.00000000       0.00083702       0.00033701      -0.11736634
Ag       2.83848468       4.91639969       0.00000000        0       0.00000000      -0.00015230       0.00038818      -0.11883419
Ag       5.67696936       4.91639969       0.00000000        0       0.00000000       0.00002283       0.00025140      -0.11580519
Ag       8.51545404       4.91639969       0.00000000        0       0.00000000       0.00012122       0.00036938      -0.11860866
Ag       1.41924234       0.81939995       2.36351683        1       0.00000000      -0.00052270       0.00098858       0.14784511
Ag       4.25772702       0.81939995       2.36351683        1       0.00000000      -0.01125150      -0.00841325       0.12873088
Ag       7.09621170       0.81939995       2.36351683        1       0.00000000       0.01629962      -0.00952948       0.13243059
Ag       2.83848468       3.27759979       2.36351683        1       0.00000000       0.01054519      -0.02041644       0.12578499
Ag       5.67696936       3.27759979       2.36351683        1       0.00000000       0.00157559       0.00441028       0.11056239
Ag       8.51545404       3.27759979       2.36351683        1       0.00000000      -0.00646126      -0.02031774       0.12778600
Ag       4.25772702       5.73579963       2.36351683        1       0.00000000       0.00138355       0.00853400       0.13240331
Ag       7.09621170       5.73579963       2.36351683        1       0.00000000       0.00110139       0.00736582       0.13060720
Ag       9.93469639       5.73579963       2.36351683        1       0.00000000       0.00327198       0.02211275       0.15014664
Ag       0.00467522       1.63028114       4.75023291        2       0.00000000       0.00564038      -0.00550529       0.00324776
Ag       2.83975152       1.62840218       4.74882751        2       0.00000000      -0.00309542      -0.00234148       0.00902009
Ag       5.68028011       1.63630564       4.72438247        2       0.00000000       0.00162198      -0.00059950      -0.00700797
Ag       1.42351618       4.09289467       4.72158814        2       0.00000000       0.00058910       0.00894233      -0.00815145
Ag       4.26190914       4.09588357       4.73334628        2       0.00000000      -0.00180051      -0.00424970      -0.00092404
Ag       7.09856256       4.09560645       4.73334837        2       0.00000000       0.00473645      -0.00502165      -0.00074691
Ag       2.84954938       6.55403639       4.74584205        2       0.00000000       0.00402163       0.00292624       0.00718362
Ag       5.68013516       6.55413686       4.74698469        2       0.00000000      -0.00199233      -0.00531495       0.01367629
Ag       8.51233048       6.55379448       4.74433137        2       0.00000000      -0.00501966       0.00332960       0.00804196
Ag      -0.03028862      -0.02110682       7.17373515        3       0.00000000      -0.00213595       0.00600313       0.01839608
Ag       2.88626991      -0.03017810       7.17160635        3       0.00000000       0.01344715       0.00921356       0.00698886
Ag       5.68520532      -0.01122063       7.11292307        3       0.00000000       0.01063398       0.00707314      -0.00272890
Ag       1.42906977       2.47351760       7.11995251        3       0.00000000      -0.00133879       0.01192065      -0.01706489
Ag       4.27213506       2.45132010       7.12093744        3       0.00000000      -0.00057810       0.00518596      -0.00454835
Ag       7.10086551       2.45116505       7.12798480        3       0.00000000      -0.00065272       0.00004237      -0.00650867
Ag       2.84395784       4.89573714       7.13075368        3       0.00000000      -0.00195193       0.00627775      -0.00341679
Ag       5.68562246       4.88803422       7.13307723        3       0.00000000       0.00035945      -0.00543252      -0.01257690
Ag       8.53106062       4.89371319       7.12605368        3       0.00000000      -0.00114495      -0.00111970      -0.00065885
O        1.43947914       0.20809900       8.95188785        0       0.00000000      -0.01715212      -0.00040158      -0.05806055
O        1.43060505      -0.87612764       9.92756136        0       0.00000000       0.04406377      -0.03145284      -0.07093044
H        2.24870049      -0.64627588      10.41394686        0       0.00000000      -0.06415138       0.01593435      -0.00650502
