39
Lattice="8.51545404474967 -5.95020126642259e-16 6.045666078066302e-16 4.2577270223748345 7.374599527512166 1.4060493190009737e-15 0.0 0.0 22.098036274269273" Properties=species:S:1:pos:R:3:tags:I:1:initial_magmoms:R:1:forces:R:3 stress="-0.0009882697210335852 -4.056773390201676e-05 -1.4595880963737425e-06 -4.056773390201676e-05 -0.0010237945132103923 -0.00021238927620764893 -1.4595880963737425e-06 -0.00021238927620764893 -0.001446770300296659" energy=-122.272566305986 pbc="T T T"
Ag      -0.00000000      -0.00000000       0.00000000        0       0.00000000       0.00001615      -0.00014477      -0.11627214
Ag       2.83848468      -0.00000000       0.00000000        0       0.00000000       0.00014183      -0.00049065      -0.11707046
Ag       5.67696936      -0.00000000       0.00000000        0       0.00000000      -0.00020167      -0.00052755      -0.11717484
Ag       1.41924234       2.45819984       0.00000000        0       0.00000000      -0.00030979       0.00022750      -0.11721613
Ag       4.25772702       2.45819984       0.00000000        0       0.00000000      -0.00005082      -0.00007374      -0.11655602
Ag       7.09621170       2.45819984       0.00000000        0       0.00000000       0.00036303       0.00030866      -0.11700630
Ag       2.83848468       4.91639969       0.00000000        0       0.00000000      -0.00039232       0.00021386      -0.11719367
Ag       5.67696936       4.91639969       0.00000000        0       0.00000000       0.00043993       0.00023048      -0.11698252
Ag       8.51545404       4.91639969       0.00000000        0       0.00000000      -0.00004798       0.00025157      -0.11812604
Ag       1.41924234       0.81939995       2.36351683        1       0.00000000      -0.00067979      -0.00600148       0.12674985
Ag       4.25772702       0.81939995       2.36351683        1       0.00000000       0.00073895      -0.00077122       0.13456297
Ag       7.09621170       0.81939995       2.36351683        1       0.00000000      -0.00081507      -0.00623931       0.12663430
Ag       2.83848468       3.27759979       2.36351683        1       0.00000000       0.00359847      -0.01136035       0.12540341
Ag       5.67696936       3.27759979       2.36351683        1       0.00000000      -0.00270003      -0.01147469       0.12928004
Ag       8.51545404       3.27759979       2.36351683        1       0.00000000      -0.00245850      -0.01227794       0.12029139
Ag       4.25772702       5.73579963       2.36351683        1       0.00000000      -0.00070281      -0.00403714       0.12447595
Ag       7.09621170       5.73579963       2.36351683        1       0.00000000      -0.00679609       0.00161461       0.12782860
Ag       9.93469639       5.73579963       2.36351683        1       0.00000000       0.00833134       0.00502129       0.12754927
Ag      -0.00059130       1.63501172       4.74031722        2       0.00000000      -0.00006421      -0.00567239      -0.00721432
Ag       2.83658229       1.62630910       4.74053768        2       0.00000000       0.00082772       0.00503205      -0.00226199
Ag       5.67845928       1.62606363       4.74147099        2       0.00000000      -0.00028164       0.00507029      -0.00186685
Ag       1.41897044       4.08843019       4.73039867        2       0.00000000      -0.00379488      -0.00118593      -0.00278171
Ag       4.25767047       4.08564087       4.73694187        2       0.00000000       0.00031290       0.00465491       0.00156316
Ag       7.09445230       4.08827390       4.73364309        2       0.00000000       0.00335143      -0.00090688      -0.00176853
Ag       2.83992259       6.54668654       4.74257444        2       0.00000000      -0.00129960       0.00072024       0.00126740
Ag       5.67600430       6.54579413       4.74154755        2       0.00000000       0.00009494       0.00086941       0.00049733
Ag       8.51530171       6.54638797       4.73562440        2       0.00000000      -0.00119868       0.00364371       0.00175403
Ag      -0.00589356      -0.01004583       7.08923165        3       0.00000000      -0.00580702      -0.02112721      -0.03709792
Ag       2.84506410      -0.01884673       7.14838206        3       0.00000000      -0.00212303       0.00943081      -0.00743988
Ag       5.66936391      -0.02083198       7.15047688        3       0.00000000      -0.00312164       0.00807008      -0.00988289
Ag       1.43144033       2.45257049       7.13756135        3       0.00000000      -0.00648423      -0.00049908      -0.00533188
Ag       4.25723233       2.43628057       7.13535031        3       0.00000000      -0.00051745       0.00659051       0.00033768
Ag       7.08472643       2.45039743       7.14251577        3       0.00000000       0.00471503       0.00077842      -0.00606653
Ag       2.83302617       4.88822910       7.13134962        3       0.00000000      -0.00685071      -0.00173828      -0.01163369
Ag       5.67787245       4.88965398       7.13779482        3       0.00000000       0.00538076      -0.00330046      -0.00804461
Ag       8.51455972       4.89871005       7.12662759        3       0.00000000      -0.00187137       0.00932021       0.00101001
O        0.10349797       0.40324942       9.22931081        0       0.00000000       0.03927399      -0.01239380       0.00984154
O        0.06835138      -0.87208919       9.88623514        0       0.00000000       0.03974328      -0.00038515       0.01057474
H        0.75418027      -0.72172562      10.57505663        0       0.00000000      -0.05876041       0.03855940      -0.01463274
