39
Lattice="8.51545404474967 -5.95020126642259e-16 6.045666078066302e-16 4.2577270223748345 7.374599527512166 1.4060493190009737e-15 0.0 0.0 22.098036274269273" Properties=species:S:1:pos:R:3:tags:I:1:initial_magmoms:R:1:forces:R:3 stress="-0.0015420070676927314 9.706684123570328e-05 0.0001838417826027286 9.706684123570328e-05 -0.0016436513037257506 -7.810752878436839e-05 0.0001838417826027286 -7.810752878436839e-05 -0.0007161479277610384" energy=-122.43489606701505 pbc="T T T"
Ag      -0.00000000      -0.00000000       0.00000000        0       0.00000000      -0.00021503      -0.00019650      -0.11440016
Ag       2.83848468      -0.00000000       0.00000000        0       0.00000000       0.00012735      -0.00010911      -0.11429089
Ag       5.67696936      -0.00000000       0.00000000        0       0.00000000       0.00011635      -0.00118653      -0.11830044
Ag       1.41924234       2.45819984       0.00000000        0       0.00000000       0.00004929      -0.00018488      -0.11493814
Ag       4.25772702       2.45819984       0.00000000        0       0.00000000      -0.00090781      -0.00004663      -0.11721325
Ag       7.09621170       2.45819984       0.00000000        0       0.00000000       0.00079983       0.00000561      -0.11726474
Ag       2.83848468       4.91639969       0.00000000        0       0.00000000      -0.00030280       0.00052694      -0.11971328
Ag       5.67696936       4.91639969       0.00000000        0       0.00000000       0.00001561       0.00057043      -0.11634271
Ag       8.51545404       4.91639969       0.00000000        0       0.00000000       0.00025643       0.00039676      -0.11931394
Ag       1.41924234       0.81939995       2.36351683        1       0.00000000      -0.00034318      -0.00294586       0.17580965
Ag       4.25772702       0.81939995       2.36351683        1       0.00000000      -0.02645133      -0.00469686       0.13738250
Ag       7.09621170       0.81939995       2.36351683        1       0.00000000       0.02600252      -0.00734893       0.13973918
Ag       2.83848468       3.27759979       2.36351683        1       0.00000000      -0.00559287      -0.02818274       0.12575016
Ag       5.67696936       3.27759979       2.36351683        1       0.00000000       0.00042335       0.00215825       0.08323577
Ag       8.51545404       3.27759979       2.36351683        1       0.00000000       0.00547572      -0.02769885       0.12815930
Ag       4.25772702       5.73579963       2.36351683        1       0.00000000       0.00703128       0.02671608       0.14483892
Ag       7.09621170       5.73579963       2.36351683        1       0.00000000      -0.00891011       0.02490624       0.14457600
Ag       9.93469639       5.73579963       2.36351683        1       0.00000000       0.00224639       0.02638609       0.17190578
Ag       0.00623782       1.63259599       4.76060287        2       0.00000000       0.00247858       0.01289888       0.01022955
Ag       2.83075335       1.63259739       4.76111783        2       0.00000000      -0.00291469       0.01306445       0.00526030
Ag       5.67701203       1.63913902       4.71995796        2       0.00000000      -0.00012886       0.00569471       0.00621723
Ag       1.42003895       4.09796124       4.72610594        2       0.00000000       0.00184236      -0.00119264       0.01518036
Ag       4.25661827       4.09764421       4.72183861        2       0.00000000       0.00042491       0.00237254       0.00710768
Ag       7.09682467       4.09689022       4.72286710        2       0.00000000       0.00034109       0.00233917       0.00730978
Ag       2.85151779       6.56458597       4.75025890        2       0.00000000      -0.00777791      -0.00150871      -0.01059666
Ag       5.67644134       6.56277122       4.76305827        2       0.00000000      -0.00043722      -0.00255080       0.01041001
Ag       8.50386601       6.56455857       4.74728686        2       0.00000000       0.01822277      -0.00551366      -0.01894854
Ag      -0.03583377      -0.01024968       7.21752679        3       0.00000000       0.00403490      -0.00938030      -0.07676624
Ag       2.89769041      -0.02759606       7.20095474        3       0.00000000       0.02088129      -0.01287996      -0.09506278
Ag       5.68433600       0.00835070       7.11353570        3       0.00000000       0.02034802       0.01333031       0.00767586
Ag       1.41747517       2.53241246       7.14524731        3       0.00000000       0.01019866      -0.07298276       0.03758102
Ag       4.26758192       2.46906429       7.11422703        3       0.00000000       0.00054128       0.01010882       0.00385498
Ag       7.09035464       2.46545148       7.12315555        3       0.00000000       0.00005800       0.01613287       0.00365738
Ag       2.84713133       4.92944057       7.11614304        3       0.00000000      -0.01576969      -0.02983633       0.00215416
Ag       5.67701507       4.90521010       7.12302214        3       0.00000000       0.00403746       0.01551167       0.00537183
Ag       8.51215164       4.92383699       7.11205101        3       0.00000000       0.03504680      -0.04415345       0.00003717
O        1.47543965       0.66235793       8.85224802        0       0.00000000      -0.04710796       0.03022167      -0.00900814
O        1.36809875       0.16403249      10.21804190        0       0.00000000       0.00418288       0.00496923      -0.08019113
H        2.31585029       0.07585826      10.44696493        0       0.00000000      -0.04832365       0.04428478      -0.03109353
