39
Lattice="8.51545404474967 -5.95020126642259e-16 6.045666078066302e-16 4.2577270223748345 7.374599527512166 1.4060493190009737e-15 0.0 0.0 22.098036274269273" Properties=species:S:1:pos:R:3:tags:I:1:initial_magmoms:R:1:forces:R:3 stress="-0.001451531591093503 -8.306617484612433e-05 0.00013104487147334125 -8.306617484612433e-05 -0.0014164418003003026 -0.0001567566923445463 0.00013104487147334125 -0.0001567566923445463 -0.0006673409795706926" energy=-122.43141410039595 pbc="T T T"
Ag      -0.00000000      -0.00000000       0.00000000        0       0.00000000      -0.00016070      -0.00005853      -0.11842979
Ag       2.83848468      -0.00000000       0.00000000        0       0.00000000       0.00001395       0.00052819      -0.11333106
Ag       5.67696936      -0.00000000       0.00000000        0       0.00000000       0.00011577      -0.00008437      -0.11834908
Ag       1.41924234       2.45819984       0.00000000        0       0.00000000       0.00050155      -0.00012004      -0.11396322
Ag       4.25772702       2.45819984       0.00000000        0       0.00000000      -0.00052507      -0.00017348      -0.11389826
Ag       7.09621170       2.45819984       0.00000000        0       0.00000000      -0.00002096      -0.00113269      -0.11865768
Ag       2.83848468       4.91639969       0.00000000        0       0.00000000      -0.00006140      -0.00002606      -0.11869860
Ag       5.67696936       4.91639969       0.00000000        0       0.00000000      -0.00110928       0.00045311      -0.11829623
Ag       8.51545404       4.91639969       0.00000000        0       0.00000000       0.00114326       0.00045543      -0.11767229
Ag       1.41924234       0.81939995       2.36351683        1       0.00000000       0.01681294       0.00240615       0.16398902
Ag       4.25772702       0.81939995       2.36351683        1       0.00000000      -0.01878865       0.00185076       0.16071860
Ag       7.09621170       0.81939995       2.36351683        1       0.00000000       0.00375987       0.01858500       0.12424031
Ag       2.83848468       3.27759979       2.36351683        1       0.00000000      -0.00232458      -0.01444051       0.16018526
Ag       5.67696936       3.27759979       2.36351683        1       0.00000000      -0.01806460      -0.00721454       0.11387187
Ag       8.51545404       3.27759979       2.36351683        1       0.00000000       0.01961282      -0.00926237       0.12373873
Ag       4.25772702       5.73579963       2.36351683        1       0.00000000       0.02989327      -0.00603431       0.14625699
Ag       7.09621170       5.73579963       2.36351683        1       0.00000000      -0.00156190       0.02426993       0.13115015
Ag       9.93469639       5.73579963       2.36351683        1       0.00000000      -0.02797627      -0.01027567       0.14901369
Ag       0.00826885       1.63884831       4.74300610        2       0.00000000       0.00181240       0.00147673       0.00850563
Ag       2.83807426       1.64231448       4.76997145        2       0.00000000       0.00273128       0.00719802       0.01924131
Ag       5.67131528       1.63841227       4.73902183        2       0.00000000       0.00424908       0.00110574       0.00418054
Ag       1.42051407       4.08799856       4.74608974        2       0.00000000       0.00011735       0.00229630      -0.00015163
Ag       4.25657269       4.09036474       4.74317631        2       0.00000000       0.00166483       0.00627895      -0.00658792
Ag       7.09551054       4.09615170       4.71657044        2       0.00000000       0.00020411       0.00123319       0.00361066
Ag       2.83869945       6.55375088       4.71684322        2       0.00000000       0.00048610       0.00002160       0.01106271
Ag       5.68647384       6.56416916       4.75364321        2       0.00000000      -0.01382734      -0.00408479      -0.01972568
Ag       8.50599832       6.56327720       4.75116908        2       0.00000000       0.01462963      -0.00612465      -0.01793937
Ag      -0.01405499      -0.00508777       7.12691998        3       0.00000000       0.00353768       0.00984607       0.00895079
Ag       2.83832302      -0.03913557       7.19442483        3       0.00000000       0.00368392      -0.01538744      -0.08173002
Ag       5.69050494      -0.00703670       7.12264731        3       0.00000000      -0.00199790       0.01355310       0.00489296
Ag       1.37899242       2.48220063       7.19794630        3       0.00000000       0.03931621      -0.01999716      -0.00103956
Ag       4.31926951       2.49288397       7.16651202        3       0.00000000      -0.01901244      -0.00898314      -0.01700017
Ag       7.10424050       2.46044798       7.11551482        3       0.00000000       0.00738585       0.00422245       0.00431871
Ag       2.83813422       4.92308413       7.12044934        3       0.00000000       0.00418530       0.01323980       0.00465012
Ag       5.68271021       4.92621241       7.11553712        3       0.00000000      -0.01471551      -0.02989742       0.00766308
Ag       8.51269709       4.92009572       7.11173656        3       0.00000000       0.02653595      -0.03272157       0.00926114
O        2.89661779       1.52024567       8.85517694        0       0.00000000      -0.03738261      -0.04048835      -0.07773508
O        2.80273301       1.00167359      10.21536713        0       0.00000000       0.01189725       0.05439631      -0.06329686
H        3.75392121       0.91585828      10.43005387        0       0.00000000      -0.03676114       0.04309025      -0.02299976
