19
Lattice="27.84 0.0 0.0 0.0 27.84 0.0 0.0 0.0 27.84" Properties=species:S:1:pos:R:3:initial_magmoms:R:1:forces:R:3 stress="-3.2662951081156613e-05 1.2561356056151998e-18 2.2390594730313902e-18 1.2561356056151998e-18 -3.2662951081153686e-05 1.8551670213276426e-18 2.2390594730313902e-18 1.8551670213276426e-18 -3.266295108115008e-05" energy=-91.47671119936558 pbc="T T T"
Pt      12.00282994      12.00282994      13.92000000       0.00000000      -0.03198172      -0.03198172      -0.00000000
Pt      12.00282994      13.92000000      12.00282994       0.00000000      -0.03198172       0.00000000      -0.03198172
Pt      10.24610511      13.92000000      13.92000000       0.00000000      -0.02916588       0.00000000      -0.00000000
Pt      12.00282994      13.92000000      15.83717006       0.00000000      -0.03198172       0.00000000       0.03198172
Pt      12.00282994      15.83717006      13.92000000       0.00000000      -0.03198172       0.03198172      -0.00000000
Pt      13.92000000      12.00282994      12.00282994       0.00000000      -0.00000000      -0.03198172      -0.03198172
Pt      13.92000000      10.24610511      13.92000000       0.00000000      -0.00000000      -0.02916588      -0.00000000
Pt      13.92000000      12.00282994      15.83717006       0.00000000       0.00000000      -0.03198172       0.03198172
Pt      15.83717006      12.00282994      13.92000000       0.00000000       0.03198172      -0.03198172      -0.00000000
Pt      13.92000000      13.92000000      10.24610511       0.00000000       0.00000000       0.00000000      -0.02916588
Pt      13.92000000      15.83717006      12.00282994       0.00000000      -0.00000000       0.03198172      -0.03198172
Pt      15.83717006      13.92000000      12.00282994       0.00000000       0.03198172      -0.00000000      -0.03198172
Pt      13.92000000      13.92000000      13.92000000       0.00000000      -0.00000000       0.00000000      -0.00000000
Pt      13.92000000      15.83717006      15.83717006       0.00000000       0.00000000       0.03198172       0.03198172
Pt      15.83717006      13.92000000      15.83717006       0.00000000       0.03198172       0.00000000       0.03198172
Pt      15.83717006      15.83717006      13.92000000       0.00000000       0.03198172       0.03198172      -0.00000000
Pt      13.92000000      13.92000000      17.59389489       0.00000000      -0.00000000      -0.00000000       0.02916588
Pt      13.92000000      17.59389489      13.92000000       0.00000000      -0.00000000       0.02916588      -0.00000000
Pt      17.59389489      13.92000000      13.92000000       0.00000000       0.02916588      -0.00000000      -0.00000000
