36
Lattice="8.143282129841092 -3.9719248023175796e-16 4.2043796269772325e-15 4.071641064920545 7.05228919462624 1.1826840171501552e-15 4.577148787132132e-15 -1.1558911714333558e-15 9.364239727958173" Properties=species:S:1:pos:R:3:tags:I:1:initial_magmoms:R:1:forces:R:3 stress="-1.9657886551491255e-05 1.0110132743729477e-16 1.5145945214177582e-16 1.0110132743729477e-16 -1.9657886550790427e-05 -1.1157121225511646e-16 1.5145945214177582e-16 -1.1157121225511646e-16 -1.0925166131589559e-05" energy=-208.39837122797016 pbc="T T T"
Pd      -0.00000000       0.00000000       0.10304740        4       0.00000000      -0.00000000       0.00000000       0.04675978
Pd       2.71442738      -0.00000000       0.10304740        4       0.00000000      -0.00000000      -0.00000000       0.04675978
Pd       5.42885475      -0.00000000       0.10304740        4       0.00000000       0.00000000      -0.00000000       0.04675978
Pd       1.35721369       2.35076306       0.10304740        4       0.00000000      -0.00000000       0.00000000       0.04675978
Pd       4.07164106       2.35076306       0.10304740        4       0.00000000      -0.00000000      -0.00000000       0.04675978
Pd       6.78606844       2.35076306       0.10304740        4       0.00000000       0.00000000      -0.00000000       0.04675978
Pd       2.71442738       4.70152613       0.10304740        4       0.00000000      -0.00000000       0.00000000       0.04675978
Pd       5.42885475       4.70152613       0.10304740        4       0.00000000       0.00000000       0.00000000       0.04675978
Pd       8.14328213       4.70152613       0.10304740        4       0.00000000       0.00000000      -0.00000000       0.04675978
Pd       1.35721369       0.78358769       2.37273668        3       0.00000000      -0.00000000       0.00000000       0.04136501
Pd       4.07164106       0.78358769       2.37273668        3       0.00000000       0.00000000      -0.00000000       0.04136501
Pd       6.78606844       0.78358769       2.37273668        3       0.00000000       0.00000000       0.00000000       0.04136501
Pd       2.71442738       3.13435075       2.37273668        3       0.00000000      -0.00000000      -0.00000000       0.04136501
Pd       5.42885475       3.13435075       2.37273668        3       0.00000000      -0.00000000      -0.00000000       0.04136501
Pd       8.14328213       3.13435075       2.37273668        3       0.00000000       0.00000000      -0.00000000       0.04136501
Pd       4.07164106       5.48511382       2.37273668        3       0.00000000       0.00000000       0.00000000       0.04136501
Pd       6.78606844       5.48511382       2.37273668        3       0.00000000       0.00000000       0.00000000       0.04136501
Pd       9.50049582       5.48511382       2.37273668        3       0.00000000      -0.00000000      -0.00000000       0.04136501
Pd      -0.00000000       1.56717538       4.65044312        2       0.00000000      -0.00000000      -0.00000000      -0.04136501
Pd       2.71442738       1.56717538       4.65044312        2       0.00000000      -0.00000000      -0.00000000      -0.04136501
Pd       5.42885475       1.56717538       4.65044312        2       0.00000000       0.00000000      -0.00000000      -0.04136501
Pd       1.35721369       3.91793844       4.65044312        2       0.00000000      -0.00000000       0.00000000      -0.04136501
Pd       4.07164106       3.91793844       4.65044312        2       0.00000000       0.00000000      -0.00000000      -0.04136501
Pd       6.78606844       3.91793844       4.65044312        2       0.00000000       0.00000000      -0.00000000      -0.04136501
Pd       2.71442738       6.26870151       4.65044312        2       0.00000000      -0.00000000       0.00000000      -0.04136501
Pd       5.42885475       6.26870151       4.65044312        2       0.00000000       0.00000000       0.00000000      -0.04136501
Pd       8.14328213       6.26870151       4.65044312        2       0.00000000      -0.00000000      -0.00000000      -0.04136501
Pd      -0.00000000       0.00000000       6.92013239        1       0.00000000      -0.00000000       0.00000000      -0.04675978
Pd       2.71442738      -0.00000000       6.92013239        1       0.00000000      -0.00000000      -0.00000000      -0.04675978
Pd       5.42885475      -0.00000000       6.92013239        1       0.00000000      -0.00000000      -0.00000000      -0.04675978
Pd       1.35721369       2.35076306       6.92013239        1       0.00000000      -0.00000000       0.00000000      -0.04675978
Pd       4.07164106       2.35076306       6.92013239        1       0.00000000      -0.00000000      -0.00000000      -0.04675978
Pd       6.78606844       2.35076306       6.92013239        1       0.00000000       0.00000000      -0.00000000      -0.04675978
Pd       2.71442738       4.70152613       6.92013239        1       0.00000000      -0.00000000       0.00000000      -0.04675978
Pd       5.42885475       4.70152613       6.92013239        1       0.00000000       0.00000000       0.00000000      -0.04675978
Pd       8.14328213       4.70152613       6.92013239        1       0.00000000       0.00000000      -0.00000000      -0.04675978
