39
Lattice="8.075029797763122 1.117050279802324e-15 -2.7844496532153836e-16 4.03751489888156 6.993180941179185 -4.915159972894024e-16 0.0 0.0 21.671322733040526" Properties=species:S:1:pos:R:3:tags:I:1:initial_magmoms:R:1:forces:R:3 stress="0.016647524413509633 -3.648632405232253e-05 -5.3120331733440596e-05 -3.648632405232253e-05 0.016612201044249705 0.0006285927455445371 -5.3120331733440596e-05 0.0006285927455445371 0.00048636968217520386" energy=-336.4030387347379 pbc="T T T"
Ir       0.00000000      -0.00000000       0.00000000        0       0.00000000      -0.00124253       0.00146023      -0.02003210
Ir       2.69167660      -0.00000000       0.00000000        0       0.00000000      -0.00305172       0.00102402      -0.01551699
Ir       5.38335320      -0.00000000       0.00000000        0       0.00000000       0.00407976       0.00022602      -0.01124012
Ir       1.34583830       2.33106031       0.00000000        0       0.00000000      -0.00365662      -0.00381051      -0.01150114
Ir       4.03751490       2.33106031       0.00000000        0       0.00000000      -0.00067409       0.00136880      -0.00171936
Ir       6.72919150       2.33106031       0.00000000        0       0.00000000       0.00275377      -0.00232698      -0.01179608
Ir       2.69167660       4.66212063       0.00000000        0       0.00000000       0.00450164       0.00646486      -0.01518920
Ir       5.38335320       4.66212063       0.00000000        0       0.00000000      -0.00287264       0.00397113      -0.01585370
Ir       8.07502980       4.66212063       0.00000000        0       0.00000000      -0.00161350       0.00089743      -0.00762201
Ir       1.34583830       0.77702010       2.21702958        1       0.00000000      -0.05648776       0.00893227       0.04659070
Ir       4.03751490       0.77702010       2.21702958        1       0.00000000       0.00668885       0.00456748      -0.00905304
Ir       6.72919150       0.77702010       2.21702958        1       0.00000000       0.04968709      -0.00099383       0.06682978
Ir       2.69167660       3.10808042       2.21702958        1       0.00000000      -0.00238286       0.01995650      -0.00843435
Ir       5.38335320       3.10808042       2.21702958        1       0.00000000       0.01223696       0.02188096       0.00949070
Ir       8.07502980       3.10808042       2.21702958        1       0.00000000      -0.01324597       0.01638334       0.03836127
Ir       4.03751490       5.43914073       2.21702958        1       0.00000000      -0.00455197       0.04117062       0.03374069
Ir       6.72919150       5.43914073       2.21702958        1       0.00000000       0.01925341      -0.01985831       0.02545313
Ir       9.42086810       5.43914073       2.21702958        1       0.00000000      -0.01065216       0.00256849       0.00810705
Ir      -0.00127640       1.54605123       4.46585084        2       0.00000000      -0.00056391       0.00091019      -0.00180550
Ir       2.68763400       1.55603868       4.43786318        2       0.00000000      -0.00021831      -0.00014740       0.00045384
Ir       5.38529397       1.55641646       4.43759619        2       0.00000000      -0.00059048      -0.00040050       0.00061746
Ir       1.34547644       3.88865755       4.43914972        2       0.00000000      -0.00066717      -0.00030295      -0.00004611
Ir       4.03843098       3.89166205       4.44192112        2       0.00000000      -0.00014307       0.00003190       0.00125259
Ir       6.72586840       3.88970843       4.44736872        2       0.00000000      -0.00051670      -0.00012006      -0.00026263
Ir       2.70371701       6.22631864       4.46212298        2       0.00000000      -0.00168282      -0.00167348      -0.00046975
Ir       5.37565921       6.22473220       4.45216597        2       0.00000000       0.00023201      -0.00070457      -0.00096045
Ir       8.07529665       6.21900546       4.44028949        2       0.00000000      -0.00088771      -0.00019896       0.00003419
Ir       0.00214914       0.00905749       6.77312425        3       0.00000000      -0.00375419       0.00488392      -0.01184113
Ir       2.71358518       0.01193302       6.65036784        3       0.00000000      -0.00169985      -0.00106641      -0.00023512
Ir       5.36503319       0.01071714       6.65344349        3       0.00000000      -0.00156560      -0.00141685       0.00009667
Ir       1.35378459       2.35183104       6.65418021        3       0.00000000      -0.00104077      -0.00125007       0.00065936
Ir       4.03804844       2.33824929       6.65172199        3       0.00000000      -0.00088486      -0.00097611       0.00070862
Ir       6.71919901       2.35041309       6.66196863        3       0.00000000      -0.00145827      -0.00153905       0.00140635
Ir       2.68045080       4.65411723       6.65582187        3       0.00000000      -0.00121541      -0.00158785      -0.00033423
Ir       5.39151807       4.65517831       6.67613331        3       0.00000000      -0.00083053      -0.00136831       0.00033244
Ir       8.07416350       4.66766773       6.65517029        3       0.00000000      -0.00154052      -0.00091529       0.00090643
O        0.09827716       0.13644946       8.72571381        0       0.00000000      -0.03100304      -0.02870543      -0.01509952
O        0.42600766      -1.18183896       9.25884237        0       0.00000000       0.07792928      -0.00240882      -0.01416567
H        0.65980880      -0.88546875      10.17068783        0       0.00000000      -0.02666773      -0.06492643      -0.06186308
