39
Lattice="8.075029797763122 1.117050279802324e-15 -2.7844496532153836e-16 4.03751489888156 6.993180941179185 -4.915159972894024e-16 0.0 0.0 21.671322733040526" Properties=species:S:1:pos:R:3:tags:I:1:initial_magmoms:R:1:forces:R:3 stress="0.015886629985965545 8.426524425636e-05 0.00017673266022994559 8.426524425636e-05 0.015123913605571151 0.00046036958472628656 0.00017673266022994559 0.00046036958472628656 0.0007023699447809024" energy=-336.06407566886054 pbc="T T T"
Ir       0.00000000      -0.00000000       0.00000000        0       0.00000000      -0.00289352       0.00110905      -0.03377327
Ir       2.69167660      -0.00000000       0.00000000        0       0.00000000       0.00266466       0.00078192      -0.03220882
Ir       5.38335320      -0.00000000       0.00000000        0       0.00000000      -0.00026903      -0.00137985      -0.00441427
Ir       1.34583830       2.33106031       0.00000000        0       0.00000000      -0.00037977      -0.00003475      -0.03018647
Ir       4.03751490       2.33106031       0.00000000        0       0.00000000      -0.00204637      -0.00083298      -0.01792419
Ir       6.72919150       2.33106031       0.00000000        0       0.00000000       0.00231721      -0.00013614      -0.01854567
Ir       2.69167660       4.66212063       0.00000000        0       0.00000000      -0.00063193       0.00414429       0.00180768
Ir       5.38335320       4.66212063       0.00000000        0       0.00000000       0.00084644       0.00218516      -0.02274557
Ir       8.07502980       4.66212063       0.00000000        0       0.00000000       0.00018156       0.00408466       0.00228460
Ir       1.34583830       0.77702010       2.21702958        1       0.00000000       0.00699436       0.01428226       0.00178913
Ir       4.03751490       0.77702010       2.21702958        1       0.00000000       0.00001984      -0.05972901       0.06505257
Ir       6.72919150       0.77702010       2.21702958        1       0.00000000      -0.00304036      -0.05530561       0.05316593
Ir       2.69167660       3.10808042       2.21702958        1       0.00000000      -0.06129662       0.05630152       0.04394444
Ir       5.38335320       3.10808042       2.21702958        1       0.00000000       0.00395472       0.00172671      -0.02358404
Ir       8.07502980       3.10808042       2.21702958        1       0.00000000       0.06068633       0.05774071       0.04389322
Ir       4.03751490       5.43914073       2.21702958        1       0.00000000      -0.08134482       0.03448931       0.03500011
Ir       6.72919150       5.43914073       2.21702958        1       0.00000000       0.08637135       0.03772367       0.04392260
Ir       9.42086810       5.43914073       2.21702958        1       0.00000000       0.00039414       0.01427780       0.09235425
Ir       0.00462773       1.55284336       4.43607645        2       0.00000000      -0.00789691      -0.00012287       0.00135895
Ir       2.68627471       1.55227057       4.43958027        2       0.00000000       0.00785563      -0.00114907       0.00236967
Ir       5.38359426       1.55463091       4.43547819        2       0.00000000       0.00104938       0.00051085      -0.00150656
Ir       1.34673756       3.88408080       4.45903907        2       0.00000000       0.00255850      -0.00610641       0.01376746
Ir       4.03543923       3.88895762       4.43672191        2       0.00000000      -0.00138629       0.00299682      -0.00971054
Ir       6.73208036       3.88896855       4.43770568        2       0.00000000       0.00089124       0.00105179      -0.01126355
Ir       2.70411387       6.22811348       4.46509917        2       0.00000000      -0.01395683      -0.00694213      -0.03385054
Ir       5.38370100       6.22025489       4.42949811        2       0.00000000       0.00060314      -0.00083947       0.02696393
Ir       8.06343958       6.22859347       4.46638714        2       0.00000000       0.01761910      -0.00629532      -0.02678055
Ir      -0.01702376       0.00752984       6.72423510        3       0.00000000       0.01292860      -0.00931670      -0.04638330
Ir       2.71445331       0.00381609       6.72666933        3       0.00000000      -0.00980461      -0.01425309      -0.04537433
Ir       5.38604968       0.01347408       6.66506708        3       0.00000000      -0.00344831       0.00764546       0.01709142
Ir       1.34557888       2.37215327       6.68662186        3       0.00000000      -0.00126576      -0.06287296      -0.00026041
Ir       4.05120978       2.34526834       6.64599773        3       0.00000000       0.00392408       0.00472379       0.00072512
Ir       6.71621374       2.34629777       6.64624722        3       0.00000000      -0.00099898       0.00717887       0.00267776
Ir       2.70153620       4.67090988       6.66087985        3       0.00000000      -0.01012164      -0.02210386      -0.00171606
Ir       5.38547793       4.63725060       6.64134067        3       0.00000000       0.00258342       0.01090473       0.00068505
Ir       8.06808769       4.67086023       6.66213191        3       0.00000000       0.01554967      -0.01447765      -0.00575965
O        1.33352794       0.65821080       8.14565698        0       0.00000000       0.02435569       0.04335744       0.00816627
O        1.30867542      -0.04803009       9.87775672        0       0.00000000      -0.01260286      -0.05297818      -0.07150316
H        2.27003759      -0.04738902      10.09403049        0       0.00000000      -0.04096443       0.00765924      -0.01952923
