39
Lattice="8.075029797763122 1.117050279802324e-15 -2.7844496532153836e-16 4.03751489888156 6.993180941179185 -4.915159972894024e-16 0.0 0.0 21.671322733040526" Properties=species:S:1:pos:R:3:tags:I:1:initial_magmoms:R:1:forces:R:3 stress="0.016367711563995375 0.0003296801643320956 0.00091309488826433 0.0003296801643320956 0.01460686187183717 0.001687544449508664 0.00091309488826433 0.001687544449508664 0.0036603792024901566" energy=-337.75739877318216 pbc="T T T"
Ir       0.00000000      -0.00000000       0.00000000        0       0.00000000       0.00992708       0.00764840       0.01437768
Ir       2.69167660      -0.00000000       0.00000000        0       0.00000000       0.00047484       0.00163953      -0.01068055
Ir       5.38335320      -0.00000000       0.00000000        0       0.00000000      -0.00367965       0.01090423       0.00946945
Ir       1.34583830       2.33106031       0.00000000        0       0.00000000       0.00017660       0.00571117      -0.00933699
Ir       4.03751490       2.33106031       0.00000000        0       0.00000000       0.00514922       0.00498740      -0.01241254
Ir       6.72919150       2.33106031       0.00000000        0       0.00000000      -0.00008999       0.00370179       0.03700561
Ir       2.69167660       4.66212063       0.00000000        0       0.00000000       0.00156795      -0.00268305       0.05863750
Ir       5.38335320       4.66212063       0.00000000        0       0.00000000       0.00105812       0.00714583       0.01863455
Ir       8.07502980       4.66212063       0.00000000        0       0.00000000       0.00261769       0.00471176       0.01649663
Ir       1.34583830       0.77702010       2.21702958        1       0.00000000       0.04089339      -0.03933190       0.13000462
Ir       4.03751490       0.77702010       2.21702958        1       0.00000000      -0.01873348      -0.00263776       0.10147877
Ir       6.72919150       0.77702010       2.21702958        1       0.00000000       0.02403836       0.02493971       0.06515275
Ir       2.69167660       3.10808042       2.21702958        1       0.00000000       0.03222246       0.05947414       0.07167304
Ir       5.38335320       3.10808042       2.21702958        1       0.00000000      -0.02247695       0.03211689       0.07192733
Ir       8.07502980       3.10808042       2.21702958        1       0.00000000       0.04342632       0.01341039       0.08049516
Ir       4.03751490       5.43914073       2.21702958        1       0.00000000       0.00503555       0.06229136       0.07603190
Ir       6.72919150       5.43914073       2.21702958        1       0.00000000      -0.01608732       0.13472782       0.04954950
Ir       9.42086810       5.43914073       2.21702958        1       0.00000000       0.06452453       0.05446398       0.06486390
Ir       0.02098840       1.56896238       4.44805108        2       0.00000000      -0.02987876      -0.01662574      -0.02624998
Ir       2.69723502       1.54956481       4.46425088        2       0.00000000       0.00160232      -0.00948529      -0.00428254
Ir       5.37125021       1.57030335       4.44928527        2       0.00000000       0.02977069      -0.01307855      -0.02833692
Ir       1.35457621       3.89238702       4.44627776        2       0.00000000      -0.01745862      -0.01159534       0.01733731
Ir       4.04155050       3.89490946       4.45039009        2       0.00000000      -0.00557044      -0.03297956      -0.02147545
Ir       6.73442239       3.90840151       4.43697491        2       0.00000000       0.00141644      -0.03269284      -0.01930014
Ir       2.69888805       6.23808679       4.44158884        2       0.00000000       0.00068044      -0.04090548      -0.03755330
Ir       5.41157639       6.24583115       4.48599822        2       0.00000000      -0.01260603      -0.01776023      -0.00831404
Ir       8.06885125       6.24010922       4.45946512        2       0.00000000       0.00473819      -0.00031808       0.00322961
Ir      -0.00997971       0.01307502       6.66447846        3       0.00000000       0.03173514      -0.03908548      -0.01482820
Ir       2.71151512      -0.10419050       7.05555779        3       0.00000000      -0.00584339      -0.00539162      -0.35944992
Ir       5.41415884       0.01679525       6.65492939        3       0.00000000       0.00718822      -0.04105239      -0.00427504
Ir       1.32822406       2.36819864       6.68985863        3       0.00000000      -0.01424469      -0.00033326      -0.02718340
Ir       4.07709525       2.37009626       6.70149536        3       0.00000000      -0.01540081      -0.00428364      -0.04377432
Ir       6.73752758       2.33861670       6.64551646        3       0.00000000       0.00639328       0.00332873       0.00127983
Ir       2.70159868       4.71632132       6.63746087        3       0.00000000      -0.00437301      -0.07646170      -0.02755279
Ir       5.39367856       4.66825955       6.65668365        3       0.00000000       0.01614134       0.12750105      -0.00335694
Ir       8.09008363       4.66750015       6.63996332        3       0.00000000      -0.01427943       0.05876891       0.01169400
O        2.68960171       1.75939450       8.05931035        0       0.00000000      -0.03837408       0.01272619      -0.10592922
O        3.02590926      -0.67428343       8.93262827        0       0.00000000       0.06924469       0.04163159       0.04933694
H        3.44883168       0.12613844       9.33772180        0       0.00000000      -0.18092620      -0.28512895      -0.18438382
