39
Lattice="8.075029797763122 1.117050279802324e-15 -2.7844496532153836e-16 4.03751489888156 6.993180941179185 -4.915159972894024e-16 0.0 0.0 21.671322733040526" Properties=species:S:1:pos:R:3:tags:I:1:initial_magmoms:R:1:forces:R:3 stress="0.015594739852980544 0.00017768069334334814 -0.0008470206482877014 0.00017768069334334814 0.012504319118124801 0.0010264207095101892 -0.0008470206482877014 0.0010264207095101892 0.0008776067955174969" energy=-337.7561543294254 pbc="T T T"
Ir       0.00000000      -0.00000000       0.00000000        0       0.00000000      -0.00533091       0.00434155      -0.01287270
Ir       2.69167660      -0.00000000       0.00000000        0       0.00000000       0.00237574       0.00090349      -0.01088021
Ir       5.38335320      -0.00000000       0.00000000        0       0.00000000      -0.00191728      -0.00252615       0.01394000
Ir       1.34583830       2.33106031       0.00000000        0       0.00000000      -0.00494457      -0.00186171       0.00825727
Ir       4.03751490       2.33106031       0.00000000        0       0.00000000       0.00074564       0.00302207       0.00509950
Ir       6.72919150       2.33106031       0.00000000        0       0.00000000      -0.00006008       0.00306866       0.00404128
Ir       2.69167660       4.66212063       0.00000000        0       0.00000000       0.00096575       0.00756128       0.01532784
Ir       5.38335320       4.66212063       0.00000000        0       0.00000000       0.00037293      -0.00063896      -0.01724723
Ir       8.07502980       4.66212063       0.00000000        0       0.00000000      -0.00582409       0.00737165       0.01329607
Ir       1.34583830       0.77702010       2.21702958        1       0.00000000      -0.00654152       0.05399736       0.01736527
Ir       4.03751490       0.77702010       2.21702958        1       0.00000000      -0.02295489      -0.01016878       0.07085660
Ir       6.72919150       0.77702010       2.21702958        1       0.00000000      -0.00761777       0.00941080       0.04683690
Ir       2.69167660       3.10808042       2.21702958        1       0.00000000      -0.04729682       0.05921016       0.05696812
Ir       5.38335320       3.10808042       2.21702958        1       0.00000000      -0.00674333       0.05674440       0.04690065
Ir       8.07502980       3.10808042       2.21702958        1       0.00000000       0.01560914       0.06563562       0.07838984
Ir       4.03751490       5.43914073       2.21702958        1       0.00000000      -0.03968519      -0.01252048       0.04739235
Ir       6.72919150       5.43914073       2.21702958        1       0.00000000       0.02806856      -0.00248915       0.07293007
Ir       9.42086810       5.43914073       2.21702958        1       0.00000000      -0.02631790       0.01663234       0.02422388
Ir      -0.00320110       1.55536613       4.44007998        2       0.00000000       0.00370410      -0.00124699      -0.02296876
Ir       2.68403681       1.55471915       4.44171159        2       0.00000000      -0.00578019      -0.00606064       0.00211768
Ir       5.37809878       1.55905654       4.43813902        2       0.00000000      -0.00193055       0.02298181      -0.03760751
Ir       1.34082522       3.89887617       4.44392607        2       0.00000000       0.01098722      -0.04113291       0.05733714
Ir       4.04322898       3.89945135       4.45888352        2       0.00000000      -0.00252983      -0.00327095       0.01261829
Ir       6.71376101       3.90132069       4.45991012        2       0.00000000       0.00879836      -0.00542361      -0.01528598
Ir       2.69900006       6.22957108       4.45199915        2       0.00000000      -0.00320989      -0.00322396      -0.01660149
Ir       5.37773253       6.21627879       4.43108071        2       0.00000000      -0.00264678      -0.00898000       0.15774608
Ir       8.05788587       6.23047350       4.46094686        2       0.00000000      -0.01550517      -0.00364027      -0.02362621
Ir      -0.02388749       0.05598228       6.71749997        3       0.00000000      -0.57663644      -0.19624865      -0.38643385
Ir       2.69430161       0.04825147       6.73593855        3       0.00000000       0.43864585      -0.14779791      -0.24826340
Ir       5.37812874       0.01815897       6.65886039        3       0.00000000      -0.02278713      -0.00115567      -0.01995797
Ir       1.33888050       2.39031657       6.64862819        3       0.00000000       0.00116100       0.04904032       0.12693924
Ir       4.03262984       2.34397203       6.65590080        3       0.00000000       0.01472861      -0.00538862      -0.06827204
Ir       6.71716517       2.34639451       6.65821730        3       0.00000000      -0.00306896      -0.01984406      -0.07368713
Ir       2.67532842       4.67870440       6.65302286        3       0.00000000       0.01033541       0.03433109      -0.03537264
Ir       5.37545132       4.62737734       6.76379168        3       0.00000000       0.01013092      -0.20563877      -0.66450222
Ir       8.08364665       4.67927133       6.65976910        3       0.00000000      -0.02189504       0.05278316      -0.04395692
O        1.28317890       0.29554212       8.15047662        0       0.00000000       0.20769838       1.09747769       0.13630944
O        1.33934080      -2.01808314       8.67306480        0       0.00000000       0.30180408      -0.73564457       0.68943545
H        2.26964269      -1.73574326       8.85807503        0       0.00000000      -0.22490738      -0.12961063      -0.00679270
