37
Lattice="8.530808755166998 -2.5386237190646034e-15 -3.9793378221843725e-15 4.2654043775835015 7.387897096801325 -2.397330953518344e-16 0.0 0.0 22.28977243571786" Properties=species:S:1:pos:R:3:tags:I:1:initial_magmoms:R:1:forces:R:3 stress="0.003753660512376777 -5.226811212180674e-17 -5.468421619651745e-17 -5.226811212180674e-17 0.003753660512376949 9.84855570305315e-18 -5.468421619651745e-17 9.84855570305315e-18 -0.002938868894972947" energy=-132.16146754996726 pbc="T T T"
Au       0.00000000       0.00000000       0.00000000        0       0.00000000       0.00000000       0.00000000      -0.15289827
Au       2.84360292       0.00000000       0.00000000        0       0.00000000       0.00045891      -0.00153745      -0.15981236
Au       5.68720584       0.00000000       0.00000000        0       0.00000000      -0.00045891      -0.00153745      -0.15981236
Au       1.42180146       2.46263237       0.00000000        0       0.00000000      -0.00110202       0.00116615      -0.15981236
Au       4.26540438       2.46263237       0.00000000        0       0.00000000      -0.00000000       0.00000000      -0.16020577
Au       7.10900730       2.46263237       0.00000000        0       0.00000000       0.00110202       0.00116615      -0.15981236
Au       2.84360292       4.92526473       0.00000000        0       0.00000000      -0.00156093       0.00037130      -0.15981236
Au       5.68720584       4.92526473       0.00000000        0       0.00000000       0.00156093       0.00037130      -0.15981236
Au       8.53080876       4.92526473       0.00000000        0       0.00000000      -0.00000000      -0.00000000      -0.16706912
Au       1.42180146       0.82087746       2.43012302        1       0.00000000      -0.00914327      -0.00527887       0.13120630
Au       4.26540438       0.82087746       2.43012302        1       0.00000000       0.00000000      -0.00528908       0.11742868
Au       7.10900730       0.82087746       2.43012302        1       0.00000000       0.00914327      -0.00527887       0.13120630
Au       2.84360292       3.28350982       2.43012302        1       0.00000000      -0.00458048       0.00264454       0.11742868
Au       5.68720584       3.28350982       2.43012302        1       0.00000000       0.00458048       0.00264454       0.11742868
Au       8.53080876       3.28350982       2.43012302        1       0.00000000      -0.00000000      -0.03164538       0.14411597
Au       4.26540438       5.74614219       2.43012302        1       0.00000000       0.00000000       0.01055774       0.13120630
Au       7.10900730       5.74614219       2.43012302        1       0.00000000      -0.02740571       0.01582269       0.14411597
Au       9.95261021       5.74614219       2.43012302        1       0.00000000       0.02740571       0.01582269       0.14411597
Au       0.00000000       1.62614711       4.86486326        2       0.00000000       0.00000000       0.04653546       0.01807642
Au       2.84302635       1.64142203       4.84408426        2       0.00000000      -0.00131832      -0.00076113       0.02049774
Au       5.68778241       1.64142203       4.84408426        2       0.00000000       0.00131832      -0.00076113       0.02049774
Au       1.42018274       4.10532184       4.84110861        2       0.00000000       0.00246409      -0.00142265       0.01028848
Au       4.26540438       4.10505304       4.84408426        2       0.00000000      -0.00000000       0.00152227       0.02049774
Au       7.11062602       4.10532184       4.84110861        2       0.00000000      -0.00246409      -0.00142265       0.01028848
Au       2.85711967       6.57482354       4.86486326        2       0.00000000      -0.04030089      -0.02326773       0.01807642
Au       5.67368908       6.57482354       4.86486326        2       0.00000000       0.04030089      -0.02326773       0.01807642
Au       8.53080876       6.56515050       4.84110861        2       0.00000000      -0.00000000       0.00284529       0.01028848
Au       0.00000000       0.00000000       7.30086240        3       0.00000000      -0.00000000       0.00000000      -0.02925054
Au       2.85891031      -0.00040760       7.31844403        3       0.00000000      -0.01018409       0.00231392       0.03586723
Au       5.67189844      -0.00040760       7.31844403        3       0.00000000       0.01018409       0.00231392       0.03586723
Au       1.42910216       2.47609276       7.31844403        3       0.00000000      -0.00308813      -0.00997664       0.03586723
Au       4.26540438       2.46263237       7.30923077        3       0.00000000      -0.00000000       0.00000000       0.01369312
Au       7.10170659       2.47609276       7.31844403        3       0.00000000       0.00308813      -0.00997664       0.03586723
Au       2.83559623       4.91221194       7.31844403        3       0.00000000       0.00709596       0.00766272       0.03586723
Au       5.69521253       4.91221194       7.31844403        3       0.00000000      -0.00709596       0.00766272       0.03586723
Au       8.53080876       4.92526473       7.30977006        3       0.00000000      -0.00000000       0.00000000       0.01407343
O       -0.00000000      -0.00000000       9.23597555        0       0.00000000      -0.00000000      -0.00000000      -0.09951284
