36
Lattice="8.51545404474967 -5.95020126642259e-16 6.045666078066302e-16 4.2577270223748345 7.374599527512166 1.4060493190009737e-15 6.581687576229165e-16 1.3875207717667678e-15 9.77577597150235" Properties=species:S:1:pos:R:3:tags:I:1:initial_magmoms:R:1:forces:R:3 stress="-0.0001326649702709029 -6.165639601914638e-17 1.4728940678768162e-18 -6.165639601914638e-17 -0.0001326649702708474 -1.3340064021242256e-17 1.4728940678768162e-18 -1.3340064021242256e-17 -9.842314303718652e-05" energy=-116.01795277505205 pbc="T T T"
Ag      -0.00000000      -0.00000000       0.11689785        4       0.00000000      -0.00000000      -0.00000000       0.05099717
Ag       2.83848468      -0.00000000       0.11689785        4       0.00000000      -0.00000000      -0.00000000       0.05099717
Ag       5.67696936      -0.00000000       0.11689785        4       0.00000000       0.00000000      -0.00000000       0.05099717
Ag       1.41924234       2.45819984       0.11689785        4       0.00000000      -0.00000000       0.00000000       0.05099717
Ag       4.25772702       2.45819984       0.11689785        4       0.00000000      -0.00000000       0.00000000       0.05099717
Ag       7.09621170       2.45819984       0.11689785        4       0.00000000       0.00000000      -0.00000000       0.05099717
Ag       2.83848468       4.91639969       0.11689785        4       0.00000000      -0.00000000       0.00000000       0.05099717
Ag       5.67696936       4.91639969       0.11689785        4       0.00000000       0.00000000       0.00000000       0.05099717
Ag       8.51545404       4.91639969       0.11689785        4       0.00000000      -0.00000000       0.00000000       0.05099717
Ag       1.41924234       0.81939995       2.48041468        3       0.00000000      -0.00000000      -0.00000000       0.02649206
Ag       4.25772702       0.81939995       2.48041468        3       0.00000000      -0.00000000      -0.00000000       0.02649206
Ag       7.09621170       0.81939995       2.48041468        3       0.00000000       0.00000000      -0.00000000       0.02649206
Ag       2.83848468       3.27759979       2.48041468        3       0.00000000       0.00000000      -0.00000000       0.02649206
Ag       5.67696936       3.27759979       2.48041468        3       0.00000000      -0.00000000       0.00000000       0.02649206
Ag       8.51545404       3.27759979       2.48041468        3       0.00000000      -0.00000000       0.00000000       0.02649206
Ag       4.25772702       5.73579963       2.48041468        3       0.00000000      -0.00000000       0.00000000       0.02649206
Ag       7.09621170       5.73579963       2.48041468        3       0.00000000       0.00000000       0.00000000       0.02649206
Ag       9.93469639       5.73579963       2.48041468        3       0.00000000       0.00000000       0.00000000       0.02649206
Ag       0.00000000       1.63879990       4.85141730        2       0.00000000      -0.00000000      -0.00000000      -0.02649206
Ag       2.83848468       1.63879990       4.85141730        2       0.00000000      -0.00000000      -0.00000000      -0.02649206
Ag       5.67696936       1.63879990       4.85141730        2       0.00000000       0.00000000      -0.00000000      -0.02649206
Ag       1.41924234       4.09699974       4.85141730        2       0.00000000      -0.00000000       0.00000000      -0.02649206
Ag       4.25772702       4.09699974       4.85141730        2       0.00000000       0.00000000      -0.00000000      -0.02649206
Ag       7.09621170       4.09699974       4.85141730        2       0.00000000       0.00000000       0.00000000      -0.02649206
Ag       2.83848468       6.55519958       4.85141730        2       0.00000000      -0.00000000       0.00000000      -0.02649206
Ag       5.67696936       6.55519958       4.85141730        2       0.00000000       0.00000000       0.00000000      -0.02649206
Ag       8.51545404       6.55519958       4.85141730        2       0.00000000      -0.00000000       0.00000000      -0.02649206
Ag      -0.00000000      -0.00000000       7.21493413        1       0.00000000      -0.00000000      -0.00000000      -0.05099717
Ag       2.83848468      -0.00000000       7.21493413        1       0.00000000       0.00000000      -0.00000000      -0.05099717
Ag       5.67696936      -0.00000000       7.21493413        1       0.00000000       0.00000000      -0.00000000      -0.05099717
Ag       1.41924234       2.45819984       7.21493413        1       0.00000000      -0.00000000       0.00000000      -0.05099717
Ag       4.25772702       2.45819984       7.21493413        1       0.00000000       0.00000000      -0.00000000      -0.05099717
Ag       7.09621170       2.45819984       7.21493413        1       0.00000000       0.00000000      -0.00000000      -0.05099717
Ag       2.83848468       4.91639969       7.21493413        1       0.00000000      -0.00000000       0.00000000      -0.05099717
Ag       5.67696936       4.91639969       7.21493413        1       0.00000000       0.00000000       0.00000000      -0.05099717
Ag       8.51545404       4.91639969       7.21493413        1       0.00000000       0.00000000       0.00000000      -0.05099717
