39
Lattice="8.530808755166998 -2.5386237190646034e-15 -3.9793378221843725e-15 4.2654043775835015 7.387897096801325 -2.397330953518344e-16 0.0 0.0 22.28977243571786" Properties=species:S:1:pos:R:3:tags:I:1:initial_magmoms:R:1:forces:R:3 stress="0.003883566859666461 1.1448122091157501e-05 3.430198504871085e-05 1.1448122091157501e-05 0.0038744116174233307 -2.755911170367873e-05 3.430198504871085e-05 -2.755911170367873e-05 -0.0022347587889393287" energy=-142.32349793857415 pbc="T T T"
Au       0.00000000       0.00000000       0.00000000        0       0.00000000       0.00003131      -0.00003201      -0.15528052
Au       2.84360292       0.00000000       0.00000000        0       0.00000000       0.00092351      -0.00100608      -0.16054737
Au       5.68720584       0.00000000       0.00000000        0       0.00000000      -0.00095054      -0.00093596      -0.16041814
Au       1.42180146       2.46263237       0.00000000        0       0.00000000      -0.00065331       0.00141093      -0.16097184
Au       4.26540438       2.46263237       0.00000000        0       0.00000000       0.00002619       0.00001773      -0.16081341
Au       7.10900730       2.46263237       0.00000000        0       0.00000000       0.00058257       0.00161478      -0.16099077
Au       2.84360292       4.92526473       0.00000000        0       0.00000000      -0.00140836      -0.00026126      -0.16036274
Au       5.68720584       4.92526473       0.00000000        0       0.00000000       0.00158699      -0.00032789      -0.16071892
Au       8.53080876       4.92526473       0.00000000        0       0.00000000      -0.00023316      -0.00024940      -0.16589620
Au       1.42180146       0.82087746       2.43012302        1       0.00000000      -0.02193802      -0.01586887       0.17019528
Au       4.26540438       0.82087746       2.43012302        1       0.00000000       0.00147763      -0.00431545       0.13407155
Au       7.10900730       0.82087746       2.43012302        1       0.00000000       0.02008004      -0.01807112       0.17461207
Au       2.84360292       3.28350982       2.43012302        1       0.00000000      -0.00222215       0.00401659       0.13856019
Au       5.68720584       3.28350982       2.43012302        1       0.00000000       0.00152697       0.00195376       0.13793793
Au       8.53080876       3.28350982       2.43012302        1       0.00000000       0.00076678      -0.03112628       0.15760660
Au       4.26540438       5.74614219       2.43012302        1       0.00000000      -0.00302638       0.02546012       0.17553108
Au       7.10900730       5.74614219       2.43012302        1       0.00000000      -0.02966685       0.01582759       0.15928292
Au       9.95261021       5.74614219       2.43012302        1       0.00000000       0.03369987       0.01722283       0.16641245
Au      -0.00004412       1.63188727       4.86728200        2       0.00000000       0.00028375      -0.01658779       0.00691772
Au       2.84399381       1.63958106       4.84702738        2       0.00000000      -0.00355449      -0.00718335      -0.00094309
Au       5.68646660       1.63951287       4.84790069        2       0.00000000       0.00402985      -0.00674954      -0.00275655
Au       1.41829979       4.10312454       4.84563429        2       0.00000000       0.00661525      -0.00104086      -0.00112807
Au       4.26592364       4.10254723       4.84951204        2       0.00000000       0.00028456      -0.00169093      -0.00129363
Au       7.11263796       4.10342151       4.84484920        2       0.00000000      -0.00621152      -0.00184176       0.00041117
Au       2.85075081       6.56770944       4.87432412        2       0.00000000       0.02243031       0.01007678       0.02867789
Au       5.68176594       6.56649123       4.87102167        2       0.00000000      -0.02100769       0.01027819       0.02834631
Au       8.53133001       6.56266531       4.84527538        2       0.00000000       0.00063942      -0.00021565      -0.00262463
Au      -0.00196104      -0.02896759       7.34096536        3       0.00000000       0.00584570       0.03396289      -0.01929401
Au       2.85190255      -0.01095423       7.32271497        3       0.00000000       0.00739957      -0.01153747       0.01588498
Au       5.67806895      -0.00931760       7.32334289        3       0.00000000      -0.00876533      -0.01118372       0.01498875
Au       1.42300163       2.45088909       7.31625568        3       0.00000000       0.02121739       0.01902994       0.00855648
Au       4.26472256       2.45275205       7.33140228        3       0.00000000      -0.00095850      -0.01118090       0.00657436
Au       7.10596090       2.45427302       7.31300728        3       0.00000000      -0.02224832       0.02093509       0.00747863
Au       2.83427954       4.89622820       7.31702733        3       0.00000000       0.01504031       0.00946968       0.01477580
Au       5.69795749       4.89732049       7.32231645        3       0.00000000      -0.01534939       0.00969531       0.01465428
Au       8.53116433       4.91738035       7.33391854        3       0.00000000      -0.00070043      -0.01352569       0.00564841
O        0.00784849       0.34290548       9.53498630        0       0.00000000       0.02774067      -0.04680341       0.01304706
O        0.00990571      -0.85185511      10.28327916        0       0.00000000      -0.03409914      -0.02819287      -0.08364672
H        0.89090295      -0.80706678      10.71902802        0       0.00000000       0.00076495       0.04895602      -0.02248527
