39
Lattice="8.530808755166998 -2.5386237190646034e-15 -3.9793378221843725e-15 4.2654043775835015 7.387897096801325 -2.397330953518344e-16 0.0 0.0 22.28977243571786" Properties=species:S:1:pos:R:3:tags:I:1:initial_magmoms:R:1:forces:R:3 stress="0.0033932732583103354 1.6907190036934298e-05 1.0702771898255299e-05 1.6907190036934298e-05 0.0035133617114162363 0.00018438752613005434 1.0702771898255299e-05 0.00018438752613005434 -0.002549933886668375" energy=-142.22744714437658 pbc="T T T"
Au       0.00000000       0.00000000       0.00000000        0       0.00000000      -0.00169677      -0.00116457      -0.16200784
Au       2.84360292       0.00000000       0.00000000        0       0.00000000       0.00023860       0.00009178      -0.15482737
Au       5.68720584       0.00000000       0.00000000        0       0.00000000       0.00139896      -0.00110524      -0.16350125
Au       1.42180146       2.46263237       0.00000000        0       0.00000000      -0.00013157       0.00094274      -0.15843890
Au       4.26540438       2.46263237       0.00000000        0       0.00000000       0.00024454       0.00065785      -0.15926558
Au       7.10900730       2.46263237       0.00000000        0       0.00000000      -0.00013308      -0.00127843      -0.16087962
Au       2.84360292       4.92526473       0.00000000        0       0.00000000      -0.00023047       0.00061771      -0.16692804
Au       5.68720584       4.92526473       0.00000000        0       0.00000000      -0.00143980       0.00021587      -0.16051368
Au       8.53080876       4.92526473       0.00000000        0       0.00000000       0.00164218       0.00036304      -0.16032800
Au       1.42180146       0.82087746       2.43012302        1       0.00000000       0.02485777      -0.00737707       0.19517955
Au       4.26540438       0.82087746       2.43012302        1       0.00000000      -0.03150773      -0.01030287       0.18657750
Au       7.10900730       0.82087746       2.43012302        1       0.00000000       0.00685873       0.01077788       0.13466042
Au       2.84360292       3.28350982       2.43012302        1       0.00000000      -0.00758654      -0.02591269       0.17088990
Au       5.68720584       3.28350982       2.43012302        1       0.00000000      -0.01051686      -0.00127172       0.13267994
Au       8.53080876       3.28350982       2.43012302        1       0.00000000       0.01802259      -0.00385239       0.14569286
Au       4.26540438       5.74614219       2.43012302        1       0.00000000       0.03777277       0.00910619       0.16398060
Au       7.10900730       5.74614219       2.43012302        1       0.00000000      -0.00051956       0.03614159       0.17965038
Au       9.95261021       5.74614219       2.43012302        1       0.00000000      -0.03747081      -0.00149117       0.16866354
Au       0.00133418       1.63961398       4.85371508        2       0.00000000       0.00345195       0.00397114      -0.00209548
Au       2.84216962       1.64660739       4.88038237        2       0.00000000       0.00258408       0.00468547      -0.04315195
Au       5.68813183       1.63774979       4.84704975        2       0.00000000      -0.00556679       0.00682006       0.00301288
Au       1.42152991       4.10671524       4.85399373        2       0.00000000       0.00272242       0.00400204      -0.01478037
Au       4.26620442       4.10972134       4.84713975        2       0.00000000      -0.00203776      -0.00117737      -0.00825227
Au       7.10951749       4.10470466       4.84145034        2       0.00000000       0.00111517       0.00472983       0.00153129
Au       2.84312600       6.56605828       4.83737687        2       0.00000000       0.00054916       0.00244870       0.00408999
Au       5.69609211       6.57556883       4.87436945        2       0.00000000       0.00260106       0.00784636      -0.00418248
Au       8.52291055       6.57508341       4.87187168        2       0.00000000      -0.00197281       0.00703672      -0.00317175
Au      -0.01207755      -0.00235958       7.32812427        3       0.00000000       0.00964118       0.02749053      -0.00034798
Au       2.84657264       0.00453387       7.36817497        3       0.00000000      -0.00412543      -0.08561063      -0.01326299
Au       5.70041810      -0.00447912       7.33239762        3       0.00000000       0.00091292       0.02830138      -0.00688116
Au       1.37690175       2.49827389       7.31991404        3       0.00000000      -0.00845432       0.02087036      -0.00220798
Au       4.31905353       2.50016642       7.29447046        3       0.00000000       0.00127272       0.02134216       0.01641545
Au       7.11079342       2.46702773       7.32794338        3       0.00000000      -0.01149963       0.01180528      -0.00219716
Au       2.84497191       4.92218201       7.32148133        3       0.00000000       0.00423474       0.04602883       0.00458043
Au       5.69650945       4.94630027       7.32431037        3       0.00000000      -0.02032590      -0.02469467      -0.00109266
Au       8.52181582       4.94327024       7.32174282        3       0.00000000       0.02081985      -0.01187352       0.00248292
O        2.83444745       1.48863986       9.23139757        0       0.00000000       0.00698368      -0.09077884      -0.02215408
O        2.82868276       0.97901931      10.54982231        0       0.00000000       0.07137840      -0.01246025       0.04392706
H        3.79101145       0.85777879      10.71443399        0       0.00000000      -0.07408765       0.02405794       0.01645389
