39
Lattice="8.12023694367038 -2.502811802376711e-15 -3.0154273300879247e-16 4.060118471835193 7.032331477967455 9.12873696737661e-17 0.0 0.0 21.94967493036051" Properties=species:S:1:pos:R:3:tags:I:1:initial_magmoms:R:1:forces:R:3 stress="0.00021373570221654842 -4.019103143798709e-05 -2.5122826270002303e-05 -4.019103143798709e-05 0.00010403344261064248 0.00029612735433093035 -2.5122826270002303e-05 0.00029612735433093035 -0.004278428370164192" energy=-244.69946857986295 pbc="T T T"
Pt       0.00000000       0.00000000       0.00000000        0       0.00000000       0.00082152       0.00000986      -0.21797948
Pt       2.70674565       0.00000000       0.00000000        0       0.00000000       0.00027087      -0.00421337      -0.21073899
Pt       5.41349130       0.00000000       0.00000000        0       0.00000000       0.00002455      -0.00422469      -0.20971033
Pt       1.35337282       2.34411049       0.00000000        0       0.00000000      -0.00303582       0.00213755      -0.21264967
Pt       4.06011847       2.34411049       0.00000000        0       0.00000000      -0.00023349       0.00034746      -0.20455846
Pt       6.76686412       2.34411049       0.00000000        0       0.00000000       0.00288183       0.00359179      -0.21143500
Pt       2.70674565       4.68822099       0.00000000        0       0.00000000      -0.00292479       0.00113453      -0.20883199
Pt       5.41349130       4.68822099       0.00000000        0       0.00000000       0.00377233       0.00053355      -0.21114174
Pt       8.12023694       4.68822099       0.00000000        0       0.00000000      -0.00275578      -0.00198885      -0.23073589
Pt       1.35337282       0.78137016       2.31293021        1       0.00000000      -0.03917032      -0.02240889       0.24762590
Pt       4.06011847       0.78137016       2.31293021        1       0.00000000       0.00481223       0.00768464       0.15146502
Pt       6.76686412       0.78137016       2.31293021        1       0.00000000       0.03800151      -0.03384884       0.26308282
Pt       2.70674565       3.12548066       2.31293021        1       0.00000000       0.01447003      -0.00006131       0.13462441
Pt       5.41349130       3.12548066       2.31293021        1       0.00000000      -0.00621664       0.00381565       0.16150827
Pt       8.12023694       3.12548066       2.31293021        1       0.00000000      -0.00096971      -0.01803354       0.15794983
Pt       4.06011847       5.46959115       2.31293021        1       0.00000000      -0.00653453       0.04127490       0.28713878
Pt       6.76686412       5.46959115       2.31293021        1       0.00000000      -0.01807456       0.00919077       0.17714459
Pt       9.47360977       5.46959115       2.31293021        1       0.00000000       0.03701910       0.02814723       0.17027405
Pt       0.00014024       1.55438639       4.61261085        2       0.00000000      -0.00367283       0.00221119       0.01645157
Pt       2.70862286       1.56610174       4.58985657        2       0.00000000      -0.00512582      -0.00073119      -0.00029714
Pt       5.41231355       1.56578022       4.59186484        2       0.00000000      -0.00188515      -0.00009500       0.00111859
Pt       1.35263008       3.91221259       4.57900893        2       0.00000000      -0.00107246       0.00319459       0.00230999
Pt       4.06187542       3.90772134       4.59530268        2       0.00000000      -0.00467129       0.00285277      -0.00452711
Pt       6.76728129       3.91117718       4.58429640        2       0.00000000      -0.00516423       0.00175273       0.00231867
Pt       2.72286273       6.26169570       4.62469859        2       0.00000000       0.00117896       0.00597712       0.00490995
Pt       5.40591281       6.25699951       4.61463992        2       0.00000000      -0.00740761       0.00591387       0.00321228
Pt       8.12297289       6.25181229       4.58263030        2       0.00000000      -0.00277314       0.00270056      -0.00081512
Pt      -0.01245747       0.00473022       7.01146319        3       0.00000000       0.00080402       0.01417636       0.05319913
Pt       2.70738140       0.00614265       6.92079240        3       0.00000000      -0.00334379       0.00514359       0.00116397
Pt       5.38425859       0.00673800       6.92524537        3       0.00000000      -0.00016630       0.00496758       0.00435988
Pt       1.34997326       2.36282808       6.91946048        3       0.00000000      -0.00299485       0.00463729       0.00273605
Pt       4.04756684       2.35340745       6.94270180        3       0.00000000      -0.00270175       0.00672201      -0.01697425
Pt       6.74277433       2.36700732       6.92139346        3       0.00000000      -0.00106560       0.00169416       0.00808471
Pt       2.68417994       4.67735613       6.92747020        3       0.00000000       0.00072974       0.00929873       0.00216310
Pt       5.40494336       4.68175030       6.94697031        3       0.00000000      -0.00005219       0.00527752      -0.00849317
Pt       8.10561754       4.69616145       6.93426669        3       0.00000000      -0.00130175       0.00446198      -0.01193984
O        0.08986625       0.24522863       8.97163814        0       0.00000000      -0.02341393      -0.00296835       0.06064979
O        0.20819689      -1.04147267       9.57651897        0       0.00000000       0.04639329      -0.06819911      -0.04329983
H        0.69016176      -0.76597540      10.38548177        0       0.00000000      -0.00445165      -0.02207680       0.09063666
