39
Lattice="8.12023694367038 -2.502811802376711e-15 -3.0154273300879247e-16 4.060118471835193 7.032331477967455 9.12873696737661e-17 0.0 0.0 21.94967493036051" Properties=species:S:1:pos:R:3:tags:I:1:initial_magmoms:R:1:forces:R:3 stress="0.0006646345918525573 6.490847122516931e-05 0.00023051934149562463 6.490847122516931e-05 -0.000581286984903541 0.00048250015166762276 0.00023051934149562463 0.00048250015166762276 -0.003269461622712133" energy=-244.49194628752235 pbc="T T T"
Pt       0.00000000       0.00000000       0.00000000        0       0.00000000       0.00203125      -0.00363789      -0.21261345
Pt       2.70674565       0.00000000       0.00000000        0       0.00000000      -0.00273169      -0.00391389      -0.21489270
Pt       5.41349130       0.00000000       0.00000000        0       0.00000000      -0.00051060      -0.00655151      -0.20119865
Pt       1.35337282       2.34411049       0.00000000        0       0.00000000      -0.00056731       0.00030651      -0.20665789
Pt       4.06011847       2.34411049       0.00000000        0       0.00000000      -0.00208416       0.00213512      -0.21212124
Pt       6.76686412       2.34411049       0.00000000        0       0.00000000       0.00174945       0.00333344      -0.21245224
Pt       2.70674565       4.68822099       0.00000000        0       0.00000000       0.00793407       0.00142257      -0.21668887
Pt       5.41349130       4.68822099       0.00000000        0       0.00000000       0.00056355      -0.00243818      -0.21536860
Pt       8.12023694       4.68822099       0.00000000        0       0.00000000      -0.01048163       0.00098645      -0.22302711
Pt       1.35337282       0.78137016       2.31293021        1       0.00000000      -0.01138757       0.01928619       0.16871495
Pt       4.06011847       0.78137016       2.31293021        1       0.00000000       0.00906338      -0.03292932       0.24673109
Pt       6.76686412       0.78137016       2.31293021        1       0.00000000       0.00790787      -0.04382687       0.27724702
Pt       2.70674565       3.12548066       2.31293021        1       0.00000000       0.01347322       0.00787506       0.12939448
Pt       5.41349130       3.12548066       2.31293021        1       0.00000000       0.00668756      -0.00834452       0.19430538
Pt       8.12023694       3.12548066       2.31293021        1       0.00000000      -0.01312542       0.00477865       0.14671168
Pt       4.06011847       5.46959115       2.31293021        1       0.00000000      -0.08927934       0.02535417       0.23683491
Pt       6.76686412       5.46959115       2.31293021        1       0.00000000       0.08885262       0.00554930       0.21930072
Pt       9.47360977       5.46959115       2.31293021        1       0.00000000       0.01414188       0.09413520       0.27686291
Pt       0.00313612       1.56216252       4.60042630        2       0.00000000       0.00647820      -0.00002302      -0.00293846
Pt       2.70981365       1.56378198       4.59467119        2       0.00000000       0.00206229      -0.00020819       0.01067482
Pt       5.41763768       1.57356738       4.59678739        2       0.00000000       0.00425599      -0.00696433      -0.01645614
Pt       1.35640577       3.92933856       4.57506430        2       0.00000000       0.00403165       0.01017275      -0.01551877
Pt       4.05933541       3.91035444       4.58925379        2       0.00000000       0.00443096      -0.00167788      -0.01097711
Pt       6.77378397       3.90980251       4.59044607        2       0.00000000       0.00387264      -0.00120373      -0.01552636
Pt       2.72435036       6.27031392       4.63372022        2       0.00000000       0.00642119       0.00144050       0.00961323
Pt       5.41619410       6.25027889       4.58316134        2       0.00000000       0.00121151      -0.00000355       0.02976224
Pt       8.11318758       6.26846931       4.62251481        2       0.00000000      -0.01170519       0.00652177       0.03547694
Pt      -0.01109291      -0.01878522       7.01328926        3       0.00000000       0.00330955       0.00691604       0.04249956
Pt       2.72758606      -0.01149419       6.97201691        3       0.00000000       0.01943400       0.00829957       0.07462412
Pt       5.42214399       0.00158230       6.94183919        3       0.00000000       0.01207450       0.00110595       0.00024757
Pt       1.36231188       2.37322411       6.89101214        3       0.00000000      -0.00330589      -0.00761081      -0.01044347
Pt       4.07013825       2.34406048       6.94020279        3       0.00000000       0.00327047       0.01223738      -0.00592985
Pt       6.77813232       2.34332486       6.94025945        3       0.00000000      -0.01393947       0.00282476      -0.00631438
Pt       2.71394174       4.67538756       6.94450200        3       0.00000000      -0.00557299      -0.00337594      -0.00915968
Pt       5.42472008       4.65361926       6.91592032        3       0.00000000       0.00191922       0.01488690       0.00219983
Pt       8.13108534       4.67922500       6.94309261        3       0.00000000      -0.00236666      -0.01708912      -0.00752367
O        1.36667203       0.17604852       8.71031500        0       0.00000000      -0.01279270       0.03156192       0.02622936
O        1.43531301      -1.02480686       9.53439670        0       0.00000000      -0.03402720      -0.03158844      -0.08793848
H        2.15304373      -0.72158613      10.12681084        0       0.00000000      -0.01129917      -0.08974302      -0.02368371
