39
Lattice="8.12023694367038 -2.502811802376711e-15 -3.0154273300879247e-16 4.060118471835193 7.032331477967455 9.12873696737661e-17 0.0 0.0 21.94967493036051" Properties=species:S:1:pos:R:3:tags:I:1:initial_magmoms:R:1:forces:R:3 stress="0.0011648705233880258 -6.437532342753376e-05 -0.00033219460276044953 -6.437532342753376e-05 0.00043624557880662246 0.0011208085799261232 -0.00033219460276044953 0.0011208085799261232 -0.0031676228059095354" energy=-244.6621614152213 pbc="T T T"
Pt       0.00000000       0.00000000       0.00000000        0       0.00000000      -0.00003496      -0.00926431      -0.21186949
Pt       2.70674565       0.00000000       0.00000000        0       0.00000000       0.00061498      -0.00347627      -0.21373355
Pt       5.41349130       0.00000000       0.00000000        0       0.00000000       0.00143533      -0.00964800      -0.20647387
Pt       1.35337282       2.34411049       0.00000000        0       0.00000000       0.00345414       0.00100621      -0.21729628
Pt       4.06011847       2.34411049       0.00000000        0       0.00000000      -0.00248943       0.00191667      -0.21318203
Pt       6.76686412       2.34411049       0.00000000        0       0.00000000       0.00138666      -0.00438364      -0.20765437
Pt       2.70674565       4.68822099       0.00000000        0       0.00000000       0.00295533      -0.00837702      -0.23953539
Pt       5.41349130       4.68822099       0.00000000        0       0.00000000      -0.00471151      -0.00327849      -0.21317751
Pt       8.12023694       4.68822099       0.00000000        0       0.00000000       0.00565625      -0.00326496      -0.21180585
Pt       1.35337282       0.78137016       2.31293021        1       0.00000000       0.04594968      -0.02989753       0.29251608
Pt       4.06011847       0.78137016       2.31293021        1       0.00000000      -0.04813484      -0.02923004       0.32244008
Pt       6.76686412       0.78137016       2.31293021        1       0.00000000      -0.01512233       0.02451241       0.14990093
Pt       2.70674565       3.12548066       2.31293021        1       0.00000000       0.00397993       0.02166560       0.18959244
Pt       5.41349130       3.12548066       2.31293021        1       0.00000000      -0.00485748       0.03534660       0.17047536
Pt       8.12023694       3.12548066       2.31293021        1       0.00000000      -0.01230053       0.04227335       0.14949592
Pt       4.06011847       5.46959115       2.31293021        1       0.00000000       0.02515385       0.04768112       0.19520271
Pt       6.76686412       5.46959115       2.31293021        1       0.00000000      -0.00091187       0.10597146       0.33626651
Pt       9.47360977       5.46959115       2.31293021        1       0.00000000      -0.04096777       0.06388280       0.18529966
Pt      -0.00997395       1.59886559       4.58806970        2       0.00000000      -0.00095584      -0.00360821       0.00101932
Pt       2.69833958       1.59235155       4.61729457        2       0.00000000      -0.00172324      -0.00508759       0.00165180
Pt       5.40581570       1.59665219       4.59443213        2       0.00000000      -0.00085031      -0.00319943      -0.00057957
Pt       1.34412432       3.94966468       4.58226424        2       0.00000000      -0.00144112      -0.00291215      -0.00014831
Pt       4.05377924       3.94835496       4.58653178        2       0.00000000      -0.00133414      -0.00327486       0.00037330
Pt       6.75999854       3.94301118       4.59488880        2       0.00000000      -0.00115144      -0.00340928      -0.00177634
Pt       2.69723426       6.28494580       4.58642726        2       0.00000000      -0.00194263      -0.00364066      -0.00066204
Pt       5.42079699       6.29821635       4.63512579        2       0.00000000      -0.00065614      -0.00221201      -0.00058335
Pt       8.09367473       6.29975275       4.64258261        2       0.00000000      -0.00255128      -0.00272475       0.00054273
Pt      -0.03830615       0.08205422       6.93033536        3       0.00000000      -0.00549800      -0.00704056      -0.00107889
Pt       2.68981343       0.09093304       7.07883930        3       0.00000000      -0.00391657      -0.01009723      -0.00775812
Pt       5.40686107       0.08163184       6.94803470        3       0.00000000      -0.00416006      -0.00713745      -0.00046257
Pt       1.32265680       2.44202560       6.91783566        3       0.00000000      -0.00442214      -0.00486539      -0.00036491
Pt       4.04928127       2.43781448       6.92105691        3       0.00000000      -0.00015457      -0.00589257      -0.00079137
Pt       6.74536634       2.42521971       6.93948272        3       0.00000000      -0.00244244      -0.00523563      -0.00040530
Pt       2.68407844       4.77130413       6.93776771        3       0.00000000      -0.00265086      -0.00738341       0.00011834
Pt       5.38969665       4.75970913       6.93792555        3       0.00000000      -0.00094013      -0.00447719      -0.00327393
Pt       8.10489763       4.75634853       6.94398407        3       0.00000000      -0.00348174      -0.00334748      -0.00104490
O        2.48144653       0.50367968       9.00802437        0       0.00000000      -0.01264024      -0.10377205      -0.00759350
O        3.49589144      -0.17983396       9.73679414        0       0.00000000       0.09726626       0.03188735      -0.01119957
H        3.44845755       0.34994526      10.56498311        0       0.00000000      -0.00540882      -0.08600542      -0.02244418
