2
Lattice="15.0 0.0 0.0 0.0 15.0 0.0 0.0 0.0 15.0" Properties=species:S:1:pos:R:3:initial_magmoms:R:1:forces:R:3 energy=-9.885467272081563 free_energy=-9.885467272081563 stress="0.0 0.0 0.0 0.0 0.0 0.0 0.0 0.0 1.1825948496112712e-05" pbc="T T T"
O        7.50000000       7.50000000       6.88359929       1.00000000       0.00000000       0.00000000       0.03237551
O        7.50000000       7.50000000       8.11640071       1.00000000       0.00000000       0.00000000      -0.03237551
