36
Lattice="8.12023694367038 -2.502811802376711e-15 -3.0154273300879247e-16 4.060118471835193 7.032331477967455 9.12873696737661e-17 0.0 0.0 21.94967493036051" Properties=species:S:1:pos:R:3:tags:I:1:initial_magmoms:R:1:forces:R:3 stress="0.002637736437832933 7.46767551271983e-17 -7.94055098951679e-18 7.46767551271983e-17 0.0026377364378328844 2.3925806468748083e-17 -7.94055098951679e-18 2.3925806468748083e-17 -0.002209253385303681" energy=-229.95499181213208 pbc="T T T"
Pt       0.00000000       0.00000000       0.00000000        0       0.00000000       0.00000000       0.00000000      -0.21521684
Pt       2.70674565       0.00000000       0.00000000        0       0.00000000       0.00000000       0.00000000      -0.21521684
Pt       5.41349130       0.00000000       0.00000000        0       0.00000000      -0.00000000       0.00000000      -0.21521684
Pt       1.35337282       2.34411049       0.00000000        0       0.00000000       0.00000000      -0.00000000      -0.21521684
Pt       4.06011847       2.34411049       0.00000000        0       0.00000000      -0.00000000       0.00000000      -0.21521684
Pt       6.76686412       2.34411049       0.00000000        0       0.00000000      -0.00000000       0.00000000      -0.21521684
Pt       2.70674565       4.68822099       0.00000000        0       0.00000000       0.00000000      -0.00000000      -0.21521684
Pt       5.41349130       4.68822099       0.00000000        0       0.00000000      -0.00000000      -0.00000000      -0.21521684
Pt       8.12023694       4.68822099       0.00000000        0       0.00000000      -0.00000000      -0.00000000      -0.21521684
Pt       1.35337282       0.78137016       2.31293021        1       0.00000000       0.00000000       0.00000000       0.30108131
Pt       4.06011847       0.78137016       2.31293021        1       0.00000000       0.00000000       0.00000000       0.30108131
Pt       6.76686412       0.78137016       2.31293021        1       0.00000000      -0.00000000       0.00000000       0.30108131
Pt       2.70674565       3.12548066       2.31293021        1       0.00000000       0.00000000      -0.00000000       0.30108131
Pt       5.41349130       3.12548066       2.31293021        1       0.00000000      -0.00000000       0.00000000       0.30108131
Pt       8.12023694       3.12548066       2.31293021        1       0.00000000      -0.00000000       0.00000000       0.30108131
Pt       4.06011847       5.46959115       2.31293021        1       0.00000000       0.00000000      -0.00000000       0.30108131
Pt       6.76686412       5.46959115       2.31293021        1       0.00000000       0.00000000      -0.00000000       0.30108131
Pt       9.47360977       5.46959115       2.31293021        1       0.00000000      -0.00000000      -0.00000000       0.30108131
Pt       0.00000000       1.56274033       4.61188187        2       0.00000000       0.00000000      -0.00000000      -0.09385202
Pt       2.70674565       1.56274033       4.61188187        2       0.00000000      -0.00000000      -0.00000000      -0.09385202
Pt       5.41349130       1.56274033       4.61188187        2       0.00000000      -0.00000000      -0.00000000      -0.09385202
Pt       1.35337282       3.90685082       4.61188187        2       0.00000000       0.00000000       0.00000000      -0.09385202
Pt       4.06011847       3.90685082       4.61188187        2       0.00000000       0.00000000      -0.00000000      -0.09385202
Pt       6.76686412       3.90685082       4.61188187        2       0.00000000       0.00000000      -0.00000000      -0.09385202
Pt       2.70674565       6.25096131       4.61188187        2       0.00000000       0.00000000       0.00000000      -0.09385202
Pt       5.41349130       6.25096131       4.61188187        2       0.00000000      -0.00000000      -0.00000000      -0.09385202
Pt       8.12023694       6.25096131       4.61188187        2       0.00000000      -0.00000000       0.00000000      -0.09385202
Pt       0.00000000       0.00000000       6.96116711        3       0.00000000       0.00000000       0.00000000       0.00798755
Pt       2.70674565       0.00000000       6.96116711        3       0.00000000      -0.00000000       0.00000000       0.00798755
Pt       5.41349130       0.00000000       6.96116711        3       0.00000000      -0.00000000       0.00000000       0.00798755
Pt       1.35337282       2.34411049       6.96116711        3       0.00000000       0.00000000       0.00000000       0.00798755
Pt       4.06011847       2.34411049       6.96116711        3       0.00000000       0.00000000       0.00000000       0.00798755
Pt       6.76686412       2.34411049       6.96116711        3       0.00000000      -0.00000000      -0.00000000       0.00798755
Pt       2.70674565       4.68822099       6.96116711        3       0.00000000       0.00000000       0.00000000       0.00798755
Pt       5.41349130       4.68822099       6.96116711        3       0.00000000      -0.00000000      -0.00000000       0.00798755
Pt       8.12023694       4.68822099       6.96116711        3       0.00000000      -0.00000000      -0.00000000       0.00798755
