1
Lattice="15.0 0.0 0.0 0.0 15.0 0.0 0.0 0.0 15.0" Properties=species:S:1:pos:R:3:initial_magmoms:R:1:forces:R:3 stress="1.478604938868254e-09 0.0 0.0 0.0 1.478604938868254e-09 0.0 0.0 0.0 1.478604938868254e-09" energy=-1.5469101294269916 pbc="T T T"
O        7.50000000       7.50000000       7.50000000       0.00000000       0.00000000       0.00000000       0.00000000
