37
Lattice="8.530808755166998 -2.5386237190646034e-15 -3.9793378221843725e-15 4.2654043775835015 7.387897096801325 -2.397330953518344e-16 0.0 0.0 22.28977243571786" Properties=species:S:1:pos:R:3:tags:I:1:initial_magmoms:R:1:forces:R:3 stress="0.002023944355725036 -9.363385226066224e-06 5.176440878513933e-06 -9.363385226066224e-06 0.002034756261686737 2.98861953461734e-06 5.176440878513933e-06 2.98861953461734e-06 -0.0018612303374855744" energy=-133.00434948211776 pbc="T T T"
Au       0.00000000       0.00000000       0.00000000        0       0.00000000      -0.00105251      -0.00060767      -0.17087685
Au       2.84360292       0.00000000       0.00000000        0       0.00000000      -0.00001591      -0.00156247      -0.15546750
Au       5.68720584       0.00000000       0.00000000        0       0.00000000       0.00106144      -0.00060904      -0.17082672
Au       1.42180146       2.46263237       0.00000000        0       0.00000000      -0.00136110       0.00076746      -0.15546750
Au       4.26540438       2.46263237       0.00000000        0       0.00000000       0.00135721       0.00078359      -0.15544357
Au       7.10900730       2.46263237       0.00000000        0       0.00000000       0.00000844      -0.00364757      -0.16231990
Au       2.84360292       4.92526473       0.00000000        0       0.00000000       0.00000328       0.00122375      -0.17082672
Au       5.68720584       4.92526473       0.00000000        0       0.00000000      -0.00315466       0.00183110      -0.16231990
Au       8.53080876       4.92526473       0.00000000        0       0.00000000       0.00314264       0.00181441      -0.16229421
Au       1.42180146       0.82087746       2.43012302        1       0.00000000      -0.00284796      -0.00164427       0.21120847
Au       4.26540438       0.82087746       2.43012302        1       0.00000000       0.00298706      -0.00149850       0.21195564
Au       7.10900730       0.82087746       2.43012302        1       0.00000000      -0.00027897       0.05395830       0.18872964
Au       2.84360292       3.28350982       2.43012302        1       0.00000000       0.00019579       0.00333612       0.21195564
Au       5.68720584       3.28350982       2.43012302        1       0.00000000      -0.05108356      -0.02949311       0.15568997
Au       8.53080876       3.28350982       2.43012302        1       0.00000000       0.05098902      -0.02924719       0.15522041
Au       4.26540438       5.74614219       2.43012302        1       0.00000000       0.04658978      -0.02722075       0.18872964
Au       7.10900730       5.74614219       2.43012302        1       0.00000000       0.00016571       0.05878138       0.15522041
Au       9.95261021       5.74614219       2.43012302        1       0.00000000      -0.04671537      -0.02697113       0.18886194
Au       0.01556402       1.64581058       4.87478094        2       0.00000000       0.00549267       0.00321791      -0.01504073
Au       2.84365195       1.64178322       4.89903254        2       0.00000000       0.00083787       0.00048374       0.03928768
Au       5.67181690       1.64578125       4.87509441        2       0.00000000      -0.00483413       0.00444825      -0.01468272
Au       1.42609231       4.08900485       4.87498688        2       0.00000000      -0.00076155      -0.00599793      -0.01490648
Au       4.26119682       4.08904690       4.87509441        2       0.00000000       0.00143523      -0.00641060      -0.01468272
Au       7.10907178       4.10442451       4.81841162        2       0.00000000      -0.00017699      -0.00010218      -0.01691428
Au       2.84366721       6.56705676       4.81843134        2       0.00000000      -0.00029510      -0.00017038       0.00507155
Au       5.69850016       6.57847065       4.87478094        2       0.00000000       0.00553313       0.00314784      -0.01504073
Au       8.51963261       6.57842684       4.87498688        2       0.00000000      -0.00557513       0.00233944      -0.01490648
Au      -0.01492870      -0.00861909       7.31809660        3       0.00000000      -0.00888725      -0.00513106       0.00385355
Au       2.84392010      -0.12446890       7.47687595        3       0.00000000       0.00113495      -0.07540222      -0.01729751
Au       5.70177849      -0.00838386       7.31793472        3       0.00000000       0.01263686      -0.00452021       0.00388262
Au       1.31416682       2.52514150       7.47687595        3       0.00000000      -0.06473277       0.03868401      -0.01729751
Au       4.37694768       2.52703192       7.47703887        3       0.00000000       0.06374548       0.03680347      -0.01867617
Au       7.11102902       2.46761977       7.27754416        3       0.00000000      -0.00487707       0.00916210      -0.02845709
Au       2.84362861       4.94207695       7.31793472        3       0.00000000       0.00240381       0.01320395       0.00388262
Au       5.69253592       4.92452190       7.27754416        3       0.00000000       0.00549608      -0.00880471      -0.02845709
Au       8.52704896       4.92309401       7.27820659        3       0.00000000      -0.00588294      -0.00339652      -0.02827339
O        2.84673522       1.64356334       8.65472844        0       0.00000000      -0.00268348      -0.00154931      -0.01307399
