37
Lattice="8.530808755166998 -2.5386237190646034e-15 -3.9793378221843725e-15 4.2654043775835015 7.387897096801325 -2.397330953518344e-16 0.0 0.0 22.28977243571786" Properties=species:S:1:pos:R:3:tags:I:1:initial_magmoms:R:1:forces:R:3 stress="0.0006298452638331207 -7.537555539453186e-07 3.2002774484702367e-06 -7.537555539453186e-07 0.0011943156574720244 -0.0003721231502811598 3.2002774484702367e-06 -0.0003721231502811598 -0.002552859330492952" energy=-133.09090615683243 pbc="T T T"
Au       0.00000000       0.00000000       0.00000000        0       0.00000000      -0.00219731      -0.00088584      -0.15603723
Au       2.84360292       0.00000000       0.00000000        0       0.00000000       0.00210413      -0.00088392      -0.15606767
Au       5.68720584       0.00000000       0.00000000        0       0.00000000      -0.00002606      -0.00181560      -0.17086732
Au       1.42180146       2.46263237       0.00000000        0       0.00000000      -0.00003300       0.00196594      -0.15597230
Au       4.26540438       2.46263237       0.00000000        0       0.00000000       0.00066594       0.00101140      -0.16052916
Au       7.10900730       2.46263237       0.00000000        0       0.00000000      -0.00073577       0.00102395      -0.16052771
Au       2.84360292       4.92526473       0.00000000        0       0.00000000      -0.00149229       0.00084347      -0.17040735
Au       5.68720584       4.92526473       0.00000000        0       0.00000000      -0.00001868      -0.00066516      -0.15828851
Au       8.53080876       4.92526473       0.00000000        0       0.00000000       0.00144670       0.00083288      -0.17041827
Au       1.42180146       0.82087746       2.43012302        1       0.00000000       0.00047140       0.00548765       0.24342006
Au       4.26540438       0.82087746       2.43012302        1       0.00000000      -0.04792463      -0.02662876       0.14460441
Au       7.10900730       0.82087746       2.43012302        1       0.00000000       0.04872549      -0.02702363       0.14425796
Au       2.84360292       3.28350982       2.43012302        1       0.00000000      -0.03659560      -0.02670066       0.14622398
Au       5.68720584       3.28350982       2.43012302        1       0.00000000       0.00064660       0.00640769       0.04443699
Au       8.53080876       3.28350982       2.43012302        1       0.00000000       0.03740340      -0.02653597       0.14608620
Au       4.26540438       5.74614219       2.43012302        1       0.00000000       0.00206048       0.04445016       0.13877014
Au       7.10900730       5.74614219       2.43012302        1       0.00000000      -0.00173761       0.04423249       0.13885038
Au       9.95261021       5.74614219       2.43012302        1       0.00000000       0.00041209      -0.00422564       0.24155503
Au       0.00873281       1.62975281       4.88925213        2       0.00000000       0.00972151      -0.01942637       0.01556059
Au       2.83693375       1.62976123       4.88938870        2       0.00000000      -0.01112636      -0.01934501       0.01518101
Au       5.68827157       1.63663375       4.81916590        2       0.00000000      -0.00087314      -0.02858173       0.00677946
Au       1.42279650       4.06942485       4.85825367        2       0.00000000      -0.00076190       0.00811716      -0.01542680
Au       4.26708027       4.10061698       4.82739750        2       0.00000000      -0.00210949      -0.02795295      -0.00822509
Au       7.10936729       4.10061983       4.82756711        2       0.00000000       0.00060016      -0.02794928      -0.00875526
Au       2.86272959       6.56153149       4.85717201        2       0.00000000       0.00281003      -0.00338209       0.01467811
Au       5.68789157       6.57924552       4.88569341        2       0.00000000       0.00028958      -0.03119044       0.02246687
Au       8.51305797       6.56157715       4.85699093        2       0.00000000      -0.00233439      -0.00349367       0.01522295
Au      -0.13804638      -0.15425906       7.44524446        3       0.00000000      -0.02850345       0.03564641       0.01245481
Au       2.98258247      -0.15392105       7.44515025        3       0.00000000       0.02992418       0.03504004       0.01261954
Au       5.68775875      -0.06141381       7.23807655        3       0.00000000      -0.00000716      -0.02106458       0.06112230
Au       1.42277570       2.51050951       7.47619629        3       0.00000000      -0.00020582       0.00535343       0.02980648
Au       4.28125050       2.40761214       7.30197562        3       0.00000000      -0.01963235      -0.02055904      -0.00305611
Au       7.09541456       2.40756020       7.30203720        3       0.00000000       0.01837520      -0.02043419      -0.00336244
Au       2.83388613       4.83431390       7.28089320        3       0.00000000       0.03522456       0.06537131      -0.02091557
Au       5.68808166       4.86020823       7.29137862        3       0.00000000       0.00009875      -0.05653831       0.00819940
Au       8.54220921       4.83460962       7.28100679        3       0.00000000      -0.03530104       0.06497704      -0.02089771
O        1.42207148       0.69379260       8.59614795        0       0.00000000       0.00063587       0.07452181      -0.06254218
