38
Lattice="8.075029797763122 1.117050279802324e-15 -2.7844496532153836e-16 4.03751489888156 6.993180941179185 -4.915159972894024e-16 0.0 0.0 21.671322733040526" Properties=species:S:1:pos:R:3:tags:I:1:initial_magmoms:R:1:forces:R:3 stress="0.015319837595019157 -6.163834338789919e-06 2.0333511043822277e-05 -6.163834338789919e-06 0.015326954977848776 1.1739558074382703e-05 2.0333511043822277e-05 1.1739558074382703e-05 0.00139019465052417" energy=-331.14174908866244 pbc="T T T"
Ir       0.00000000      -0.00000000       0.00000000        0       0.00000000       0.00848793       0.00490051      -0.00541593
Ir       2.69167660      -0.00000000       0.00000000        0       0.00000000      -0.00004619      -0.00687919      -0.02284834
Ir       5.38335320      -0.00000000       0.00000000        0       0.00000000      -0.00840946       0.00485466      -0.00507075
Ir       1.34583830       2.33106031       0.00000000        0       0.00000000      -0.00598065       0.00339959      -0.02284834
Ir       4.03751490       2.33106031       0.00000000        0       0.00000000       0.00590790       0.00341093      -0.02287800
Ir       6.72919150       2.33106031       0.00000000        0       0.00000000       0.00006191       0.00102250       0.00342949
Ir       2.69167660       4.66212063       0.00000000        0       0.00000000      -0.00000047      -0.00971014      -0.00507075
Ir       5.38335320       4.66212063       0.00000000        0       0.00000000       0.00091647      -0.00045764       0.00342949
Ir       8.07502980       4.66212063       0.00000000        0       0.00000000      -0.00093613      -0.00054048       0.00339760
Ir       1.34583830       0.77702010       2.21702958        1       0.00000000      -0.05258363      -0.03035917       0.06315537
Ir       4.03751490       0.77702010       2.21702958        1       0.00000000       0.05225623      -0.03108886       0.06322805
Ir       6.72919150       0.77702010       2.21702958        1       0.00000000       0.00056067      -0.00673878       0.03846324
Ir       2.69167660       3.10808042       2.21702958        1       0.00000000      -0.00079563       0.06079965       0.06322805
Ir       5.38335320       3.10808042       2.21702958        1       0.00000000      -0.01234048      -0.00712478       0.09444996
Ir       8.07502980       3.10808042       2.21702958        1       0.00000000       0.01326590      -0.00760032       0.09604339
Ir       4.03751490       5.43914073       2.21702958        1       0.00000000      -0.00555562       0.00385494       0.03846324
Ir       6.72919150       5.43914073       2.21702958        1       0.00000000       0.00005088       0.01528877       0.09604339
Ir       9.42086810       5.43914073       2.21702958        1       0.00000000       0.00542046       0.00312950       0.03914983
Ir       0.00757084       1.55619673       4.45461973        2       0.00000000      -0.00813975       0.00885650      -0.02580159
Ir       2.69164177       1.55402010       4.43591839        2       0.00000000       0.00067267       0.00038837      -0.05351249
Ir       5.37594567       1.55615421       4.45428178        2       0.00000000       0.00828276       0.00879107      -0.02566758
Ir       1.34764001       3.87747430       4.45465504        2       0.00000000      -0.01118593       0.00292686      -0.02580856
Ir       4.03564191       3.87762842       4.45428178        2       0.00000000       0.01175467       0.00277754      -0.02566758
Ir       6.72921606       3.88511470       4.45210398        2       0.00000000       0.00026815       0.00015481      -0.01014538
Ir       2.69166406       6.21615360       4.43625924        2       0.00000000       0.00018850       0.00010883       0.00295909
Ir       5.38900622       6.22163911       4.45461973        2       0.00000000       0.00360008      -0.01147748      -0.02580159
Ir       8.06932615       6.22153427       4.45465504        2       0.00000000      -0.00305823      -0.01115073      -0.02580856
Ir      -0.01241701      -0.00716896       6.66069438        3       0.00000000      -0.01850145      -0.01068182      -0.02942124
Ir       2.69168664      -0.04293354       6.69366084        3       0.00000000       0.00059440       0.03704182      -0.04661869
Ir       5.39571526      -0.00713967       6.66053696        3       0.00000000       0.01936418      -0.01049025      -0.02935898
Ir       1.30866178       2.35253577       6.69366084        3       0.00000000       0.03237636      -0.01800614      -0.04661869
Ir       4.07532839       2.35289194       6.69162416        3       0.00000000      -0.03013208      -0.01739677      -0.04583637
Ir       6.72929421       2.32831818       6.66549767        3       0.00000000       0.00001831       0.00593425      -0.03754802
Ir       2.69167449       4.67639632       6.66053696        3       0.00000000       0.00059726       0.02201500      -0.02935898
Ir       5.38102979       4.66358064       6.66549767        3       0.00000000       0.00514837      -0.00295126      -0.03754802
Ir       8.07735063       4.66346056       6.66562576        3       0.00000000      -0.00426955      -0.00246502      -0.03774940
O        2.69085606       1.55356647       8.23184278        0       0.00000000      -0.00155047      -0.00089517       0.02374426
H        2.68370616       1.54943847       9.20889164        0       0.00000000      -0.00630832      -0.00364211       0.01321935
