38
Lattice="8.075029797763122 1.117050279802324e-15 -2.7844496532153836e-16 4.03751489888156 6.993180941179185 -4.915159972894024e-16 0.0 0.0 21.671322733040526" Properties=species:S:1:pos:R:3:tags:I:1:initial_magmoms:R:1:forces:R:3 stress="0.015359512431992814 4.741967377824979e-06 9.874373703113855e-06 4.741967377824979e-06 0.01535403687970934 5.700972315362952e-06 9.874373703113855e-06 5.700972315362952e-06 0.001843999541796185" energy=-331.10988379765416 pbc="T T T"
Ir       0.00000000      -0.00000000       0.00000000        0       0.00000000      -0.00174575      -0.00100791      -0.01117945
Ir       2.69167660      -0.00000000       0.00000000        0       0.00000000       0.00170288      -0.00098106      -0.01115883
Ir       5.38335320      -0.00000000       0.00000000        0       0.00000000       0.00003528       0.00009514       0.01376690
Ir       1.34583830       2.33106031       0.00000000        0       0.00000000       0.00000182       0.00196527      -0.01115883
Ir       4.03751490       2.33106031       0.00000000        0       0.00000000      -0.00185639      -0.00107179      -0.01038633
Ir       6.72919150       2.33106031       0.00000000        0       0.00000000       0.00183766      -0.00108456      -0.01042855
Ir       2.69167660       4.66212063       0.00000000        0       0.00000000       0.00010003      -0.00001701       0.01376690
Ir       5.38335320       4.66212063       0.00000000        0       0.00000000      -0.00002043       0.00213374      -0.01042855
Ir       8.07502980       4.66212063       0.00000000        0       0.00000000      -0.00007053      -0.00004072       0.01395601
Ir       1.34583830       0.77702010       2.21702958        1       0.00000000      -0.00029866      -0.00017243       0.04907742
Ir       4.03751490       0.77702010       2.21702958        1       0.00000000       0.01361775      -0.09007814       0.08267234
Ir       6.72919150       0.77702010       2.21702958        1       0.00000000      -0.01333270      -0.09022828       0.08306259
Ir       2.69167660       3.10808042       2.21702958        1       0.00000000      -0.07120108       0.05683239       0.08267234
Ir       5.38335320       3.10808042       2.21702958        1       0.00000000      -0.00000414      -0.00000239       0.03542978
Ir       8.07502980       3.10808042       2.21702958        1       0.00000000       0.07109607       0.05666317       0.08303484
Ir       4.03751490       5.43914073       2.21702958        1       0.00000000      -0.08480634       0.03356768       0.08306259
Ir       6.72919150       5.43914073       2.21702958        1       0.00000000       0.08461978       0.03323942       0.08303484
Ir       9.42086810       5.43914073       2.21702958        1       0.00000000       0.00028455       0.00016428       0.12812214
Ir       0.00303017       1.55223460       4.44616296        2       0.00000000      -0.00480568       0.00315765      -0.07384347
Ir       2.68858771       1.55225684       4.44610155        2       0.00000000       0.00499640       0.00288467      -0.07382930
Ir       5.38336420       1.55179033       4.44059517        2       0.00000000       0.00012414       0.00649905      -0.00360305
Ir       1.34583399       3.87531846       4.47029629        2       0.00000000       0.00014876      -0.00371129      -0.03861161
Ir       4.03557195       3.88623499       4.44059517        2       0.00000000       0.00569042      -0.00314202      -0.00360305
Ir       6.73108882       3.88619594       4.44063795        2       0.00000000      -0.00536234      -0.00309595      -0.00373134
Ir       2.70024507       6.22110784       4.47048597        2       0.00000000       0.00349222       0.00201623      -0.03838520
Ir       5.38330458       6.21968785       4.44616296        2       0.00000000       0.00033177      -0.00574066      -0.07384347
Ir       8.06655612       6.22104813       4.47029629        2       0.00000000      -0.00313969       0.00198447      -0.03861161
Ir      -0.04121452      -0.02379521       6.69173356        3       0.00000000      -0.00569856      -0.00329006      -0.08753816
Ir       2.73328380      -0.02399474       6.69062664        3       0.00000000       0.00607531      -0.00320120      -0.08634444
Ir       5.38341367       0.00953359       6.67779777        3       0.00000000       0.00009949       0.00043291      -0.06802616
Ir       1.34586185       2.37909058       6.69062664        3       0.00000000       0.00026533       0.00686198      -0.08634444
Ir       4.05233817       2.33961853       6.65369072        3       0.00000000      -0.03161704      -0.01825411       0.02178332
Ir       6.71429413       2.33961699       6.65377657        3       0.00000000       0.03205152      -0.01796951       0.02159553
Ir       2.69996317       4.65740620       6.67779777        3       0.00000000       0.00042466      -0.00013030      -0.06802616
Ir       5.38331482       4.64494079       6.65377657        3       0.00000000       0.00046371       0.03674218       0.02159553
Ir       8.06670873       4.65731646       6.67772050        3       0.00000000       0.00034032       0.00019648      -0.06772806
O        1.34535717       0.77674232       8.25101625        0       0.00000000      -0.00080988      -0.00046758       0.06436407
H        1.34200271       0.77480562       9.22628474        0       0.00000000      -0.00303066      -0.00174975      -0.00418704
