38
Lattice="8.075029797763122 1.117050279802324e-15 -2.7844496532153836e-16 4.03751489888156 6.993180941179185 -4.915159972894024e-16 0.0 0.0 21.671322733040526" Properties=species:S:1:pos:R:3:tags:I:1:initial_magmoms:R:1:forces:R:3 stress="0.01825396946582567 1.4961106736081256e-05 8.095489193195292e-05 1.4961106736081256e-05 0.015380853945230906 0.0011514501930887742 8.095489193195292e-05 0.0011514501930887742 0.0008887056015411277" energy=-331.71499971772056 pbc="T T T"
Ir       0.00000000      -0.00000000       0.00000000        0       0.00000000      -0.00453291       0.00734054      -0.02019917
Ir       2.69167660      -0.00000000       0.00000000        0       0.00000000       0.00518913       0.00737895      -0.02018235
Ir       5.38335320      -0.00000000       0.00000000        0       0.00000000       0.00025968       0.00497683      -0.00645339
Ir       1.34583830       2.33106031       0.00000000        0       0.00000000       0.00035228      -0.00546576      -0.01741055
Ir       4.03751490       2.33106031       0.00000000        0       0.00000000      -0.00346098      -0.00332274      -0.01233253
Ir       6.72919150       2.33106031       0.00000000        0       0.00000000       0.00404695      -0.00326375      -0.01240429
Ir       2.69167660       4.66212063       0.00000000        0       0.00000000       0.00115754       0.01358385      -0.00191406
Ir       5.38335320       4.66212063       0.00000000        0       0.00000000       0.00031654       0.00602374      -0.02671884
Ir       8.07502980       4.66212063       0.00000000        0       0.00000000      -0.00054978       0.01364589      -0.00221086
Ir       1.34583830       0.77702010       2.21702958        1       0.00000000       0.00342887       0.03044257       0.01399987
Ir       4.03751490       0.77702010       2.21702958        1       0.00000000      -0.01406249      -0.01631466       0.09179449
Ir       6.72919150       0.77702010       2.21702958        1       0.00000000       0.01874767      -0.01632006       0.09104714
Ir       2.69167660       3.10808042       2.21702958        1       0.00000000      -0.04029977       0.04593393       0.00238955
Ir       5.38335320       3.10808042       2.21702958        1       0.00000000       0.00260150       0.02757236       0.00379698
Ir       8.07502980       3.10808042       2.21702958        1       0.00000000       0.04595980       0.04670297       0.00116210
Ir       4.03751490       5.43914073       2.21702958        1       0.00000000      -0.06891075       0.07445290       0.06487016
Ir       6.72919150       5.43914073       2.21702958        1       0.00000000       0.07414588       0.07484435       0.06411291
Ir       9.42086810       5.43914073       2.21702958        1       0.00000000       0.00180984       0.09897138       0.08681296
Ir       0.00667377       1.56009596       4.44966423        2       0.00000000      -0.00514950      -0.01941888      -0.01513520
Ir       2.68704972       1.55997998       4.45001925        2       0.00000000       0.00215149      -0.01928825      -0.01692815
Ir       5.38432324       1.56610490       4.43888069        2       0.00000000      -0.00126042      -0.01364924       0.00967470
Ir       1.34681484       3.90906065       4.43857126        2       0.00000000      -0.00119972      -0.02286720      -0.00880548
Ir       4.03475822       3.89939902       4.43257561        2       0.00000000      -0.00407055      -0.02066471      -0.00148641
Ir       6.73395760       3.89951602       4.43253424        2       0.00000000       0.00093207      -0.02127326      -0.00157467
Ir       2.70534312       6.24239596       4.47417619        2       0.00000000      -0.00842601      -0.02095878      -0.01306598
Ir       5.38428709       6.22437833       4.43619737        2       0.00000000      -0.00101016      -0.02484367      -0.02419727
Ir       8.06319893       6.24241870       4.47439200        2       0.00000000       0.00729651      -0.02123704      -0.01397612
Ir       0.00336155       0.02170431       6.73055419        3       0.00000000       0.01228049      -0.03261803      -0.05771486
Ir       2.69172556       0.02144098       6.73207656        3       0.00000000      -0.01681265      -0.03294078      -0.06488110
Ir       5.38485002       0.02446841       6.67500734        3       0.00000000      -0.00125126      -0.02547638      -0.00121003
Ir       1.34737267       2.39491193       6.63109228        3       0.00000000      -0.00103294      -0.02431183      -0.01597958
Ir       4.03935291       2.35405824       6.65880929        3       0.00000000      -0.00929499      -0.03307899       0.00088543
Ir       6.73053191       2.35405389       6.65855902        3       0.00000000       0.00546821      -0.03283485       0.00241646
Ir       2.69655792       4.67778275       6.66063231        3       0.00000000      -0.00614684      -0.02441961      -0.00425083
Ir       5.38483389       4.62512592       6.63540190        3       0.00000000      -0.00143508      -0.04294976      -0.01404233
Ir       8.07323980       4.67777590       6.66092752        3       0.00000000       0.00322648      -0.02483756      -0.00662704
O        1.34764832       0.02422637       8.42691850        0       0.00000000      -0.00532429       0.06748677      -0.03502325
H        1.34393334      -0.95131674       8.59251756        0       0.00000000       0.00486016      -0.01700126      -0.01823840
