38
Lattice="8.075029797763122 1.117050279802324e-15 -2.7844496532153836e-16 4.03751489888156 6.993180941179185 -4.915159972894024e-16 0.0 0.0 21.671322733040526" Properties=species:S:1:pos:R:3:tags:I:1:initial_magmoms:R:1:forces:R:3 stress="0.014593683215410793 7.540334057250641e-17 -5.641945688354292e-17 7.540334057250641e-17 0.014593683215411206 -2.1304720324665519e-16 -5.641945688354292e-17 -2.1304720324665519e-16 -0.003152462188782606" energy=-330.69287555728124 pbc="T T T"
Ir       0.00000000      -0.00000000       0.00000000        0       0.00000000       0.00000000      -0.00000000      -0.03682892
Ir       2.69167660      -0.00000000       0.00000000        0       0.00000000      -0.00777521       0.00386312      -0.04223715
Ir       5.38335320      -0.00000000       0.00000000        0       0.00000000       0.00777521       0.00386312      -0.04223715
Ir       1.34583830       2.33106031       0.00000000        0       0.00000000      -0.00054205      -0.00866509      -0.04223715
Ir       4.03751490       2.33106031       0.00000000        0       0.00000000       0.00000000      -0.00000000      -0.03551865
Ir       6.72919150       2.33106031       0.00000000        0       0.00000000       0.00054205      -0.00866509      -0.04223715
Ir       2.69167660       4.66212063       0.00000000        0       0.00000000       0.00723317       0.00480197      -0.04223715
Ir       5.38335320       4.66212063       0.00000000        0       0.00000000      -0.00723317       0.00480197      -0.04223715
Ir       8.07502980       4.66212063       0.00000000        0       0.00000000       0.00000000       0.00000000      -0.03939526
Ir       1.34583830       0.77702010       2.21702958        1       0.00000000      -0.07320836      -0.04226686      -0.00702754
Ir       4.03751490       0.77702010       2.21702958        1       0.00000000       0.00000000      -0.00108871      -0.11741428
Ir       6.72919150       0.77702010       2.21702958        1       0.00000000       0.07320836      -0.04226686      -0.00702754
Ir       2.69167660       3.10808042       2.21702958        1       0.00000000      -0.00094285       0.00054436      -0.11741428
Ir       5.38335320       3.10808042       2.21702958        1       0.00000000       0.00094285       0.00054436      -0.11741428
Ir       8.07502980       3.10808042       2.21702958        1       0.00000000       0.00000000      -0.03448937      -0.04558616
Ir       4.03751490       5.43914073       2.21702958        1       0.00000000       0.00000000       0.08453373      -0.00702754
Ir       6.72919150       5.43914073       2.21702958        1       0.00000000      -0.02986867       0.01724468      -0.04558616
Ir       9.42086810       5.43914073       2.21702958        1       0.00000000       0.02986867       0.01724468      -0.04558616
Ir       0.00000000       1.53983027       4.46194452        2       0.00000000       0.00000000       0.03602043      -0.01564544
Ir       2.68779116       1.55179695       4.42787343        2       0.00000000       0.02098598       0.01211626       0.05187277
Ir       5.38723864       1.55179695       4.42787343        2       0.00000000      -0.02098598       0.01211626       0.05187277
Ir       1.34541205       3.88534662       4.42318794        2       0.00000000       0.00395014      -0.00228061       0.09747499
Ir       4.03751490       3.88958704       4.42787343        2       0.00000000      -0.00000000      -0.02423252       0.05187277
Ir       6.72961775       3.88534662       4.42318794        2       0.00000000      -0.00395014      -0.00228061       0.09747499
Ir       2.70398277       6.22326581       4.46194452        2       0.00000000      -0.03119461      -0.01801022      -0.01564544
Ir       5.37104703       6.22326581       4.46194452        2       0.00000000       0.03119461      -0.01801022      -0.01564544
Ir       8.07502980       6.21566865       4.42318794        2       0.00000000       0.00000000       0.00456123       0.09747499
Ir       0.00000000      -0.00000000       6.75541970        3       0.00000000       0.00000000      -0.00000000       0.05826319
Ir       2.71409431       0.00212325       6.63796879        3       0.00000000      -0.02303784      -0.00459868       0.06631415
Ir       5.36093548       0.00212325       6.63796879        3       0.00000000       0.02303784      -0.00459868       0.06631415
Ir       1.35888595       2.34941300       6.63796879        3       0.00000000      -0.01550149      -0.01765201       0.06631415
Ir       4.03751490       2.33106031       6.64333256        3       0.00000000      -0.00000000       0.00000000      -0.01106321
Ir       6.71614385       2.34941300       6.63796879        3       0.00000000       0.01550149      -0.01765201       0.06631415
Ir       2.68230653       4.64164469       6.63796879        3       0.00000000       0.00753635       0.02225069       0.06631415
Ir       5.39272326       4.64164469       6.63796879        3       0.00000000      -0.00753635       0.02225069       0.06631415
Ir       8.07502980       4.66212063       6.64418289        3       0.00000000       0.00000000       0.00000000      -0.03730522
O       -0.00000000       0.00000000       8.77546005        0       0.00000000      -0.00000000       0.00000000       0.04199937
H        0.00000000      -0.00000000       9.76360688        0       0.00000000       0.00000000      -0.00000000       0.02436368
