36
Lattice="8.12023694367038 -2.502811802376711e-15 -3.0154273300879247e-16 4.060118471835193 7.032331477967455 9.12873696737661e-17 -3.2827814734037707e-16 3.0428688675028294e-16 9.508220187006701" Properties=species:S:1:pos:R:3:tags:I:1:initial_magmoms:R:1:forces:R:3 stress="0.00014189070760597944 -2.9701217456185243e-16 7.799097972863251e-17 -2.9701217456185243e-16 0.0001418907076058823 1.137496427401293e-16 7.799097972863251e-17 1.137496427401293e-16 0.0001298761648434385" energy=-245.08853739419757 pbc="T T T"
Pt       0.00000000       0.00000000       0.09074510        4       0.00000000       0.00000000       0.00000000       0.06118541
Pt       2.70674565       0.00000000       0.09074510        4       0.00000000       0.00000000       0.00000000       0.06118541
Pt       5.41349130       0.00000000       0.09074510        4       0.00000000      -0.00000000       0.00000000       0.06118541
Pt       1.35337282       2.34411049       0.09074510        4       0.00000000       0.00000000      -0.00000000       0.06118541
Pt       4.06011847       2.34411049       0.09074510        4       0.00000000      -0.00000000       0.00000000       0.06118541
Pt       6.76686412       2.34411049       0.09074510        4       0.00000000      -0.00000000       0.00000000       0.06118541
Pt       2.70674565       4.68822099       0.09074510        4       0.00000000       0.00000000      -0.00000000       0.06118541
Pt       5.41349130       4.68822099       0.09074510        4       0.00000000      -0.00000000      -0.00000000       0.06118541
Pt       8.12023694       4.68822099       0.09074510        4       0.00000000      -0.00000000      -0.00000000       0.06118541
Pt       1.35337282       0.78137016       2.40367531        3       0.00000000       0.00000000       0.00000000       0.03874395
Pt       4.06011847       0.78137016       2.40367531        3       0.00000000      -0.00000000       0.00000000       0.03874395
Pt       6.76686412       0.78137016       2.40367531        3       0.00000000      -0.00000000       0.00000000       0.03874395
Pt       2.70674565       3.12548066       2.40367531        3       0.00000000       0.00000000      -0.00000000       0.03874395
Pt       5.41349130       3.12548066       2.40367531        3       0.00000000      -0.00000000       0.00000000       0.03874395
Pt       8.12023694       3.12548066       2.40367531        3       0.00000000      -0.00000000       0.00000000       0.03874395
Pt       4.06011847       5.46959115       2.40367531        3       0.00000000       0.00000000      -0.00000000       0.03874395
Pt       6.76686412       5.46959115       2.40367531        3       0.00000000       0.00000000      -0.00000000       0.03874395
Pt       9.47360977       5.46959115       2.40367531        3       0.00000000      -0.00000000      -0.00000000       0.03874395
Pt       0.00000000       1.56274033       4.72748983        2       0.00000000       0.00000000       0.00000000      -0.03874395
Pt       2.70674565       1.56274033       4.72748983        2       0.00000000       0.00000000       0.00000000      -0.03874395
Pt       5.41349130       1.56274033       4.72748983        2       0.00000000      -0.00000000       0.00000000      -0.03874395
Pt       1.35337282       3.90685082       4.72748983        2       0.00000000       0.00000000       0.00000000      -0.03874395
Pt       4.06011847       3.90685082       4.72748983        2       0.00000000       0.00000000      -0.00000000      -0.03874395
Pt       6.76686412       3.90685082       4.72748983        2       0.00000000       0.00000000       0.00000000      -0.03874395
Pt       2.70674565       6.25096131       4.72748983        2       0.00000000       0.00000000      -0.00000000      -0.03874395
Pt       5.41349130       6.25096131       4.72748983        2       0.00000000       0.00000000      -0.00000000      -0.03874395
Pt       8.12023694       6.25096131       4.72748983        2       0.00000000      -0.00000000      -0.00000000      -0.03874395
Pt       0.00000000       0.00000000       7.04042004        1       0.00000000       0.00000000       0.00000000      -0.06118541
Pt       2.70674565       0.00000000       7.04042004        1       0.00000000       0.00000000       0.00000000      -0.06118541
Pt       5.41349130       0.00000000       7.04042004        1       0.00000000      -0.00000000       0.00000000      -0.06118541
Pt       1.35337282       2.34411049       7.04042004        1       0.00000000       0.00000000      -0.00000000      -0.06118541
Pt       4.06011847       2.34411049       7.04042004        1       0.00000000       0.00000000       0.00000000      -0.06118541
Pt       6.76686412       2.34411049       7.04042004        1       0.00000000      -0.00000000       0.00000000      -0.06118541
Pt       2.70674565       4.68822099       7.04042004        1       0.00000000       0.00000000      -0.00000000      -0.06118541
Pt       5.41349130       4.68822099       7.04042004        1       0.00000000      -0.00000000      -0.00000000      -0.06118541
Pt       8.12023694       4.68822099       7.04042004        1       0.00000000      -0.00000000      -0.00000000      -0.06118541
