36
Lattice="7.979282652125478 4.014786654423154e-15 4.603398524423124e-16 3.9896413260627424 6.910261480717139 4.2885637721088913e-16 5.011545541118969e-16 2.4976450991062863e-16 8.984711773779193" Properties=species:S:1:pos:R:3:tags:I:1:initial_magmoms:R:1:forces:R:3 stress="-0.0001775250231043149 1.1200784114124118e-15 3.9737814410337266e-16 1.1200784114124118e-15 -0.00017752502310230955 -1.6831299843876508e-17 3.9737814410337266e-16 -1.6831299843876508e-17 -0.00018252123225337424" energy=-279.89940982486183 pbc="T T T"
Rh      -0.00000000       0.00000000       0.09408097        4       0.00000000      -0.00000000       0.00000000      -0.01616299
Rh       2.65976088       0.00000000       0.09408097        4       0.00000000      -0.00000000       0.00000000      -0.01616299
Rh       5.31952177       0.00000000       0.09408097        4       0.00000000      -0.00000000       0.00000000      -0.01616299
Rh       1.32988044       2.30342049       0.09408097        4       0.00000000      -0.00000000       0.00000000      -0.01616299
Rh       3.98964133       2.30342049       0.09408097        4       0.00000000      -0.00000000       0.00000000      -0.01616299
Rh       6.64940221       2.30342049       0.09408097        4       0.00000000       0.00000000      -0.00000000      -0.01616299
Rh       2.65976088       4.60684099       0.09408097        4       0.00000000      -0.00000000       0.00000000      -0.01616299
Rh       5.31952177       4.60684099       0.09408097        4       0.00000000      -0.00000000      -0.00000000      -0.01616299
Rh       7.97928265       4.60684099       0.09408097        4       0.00000000       0.00000000      -0.00000000      -0.01616299
Rh       1.32988044       0.76780683       2.26233435        3       0.00000000      -0.00000000       0.00000000       0.08351227
Rh       3.98964133       0.76780683       2.26233435        3       0.00000000      -0.00000000      -0.00000000       0.08351227
Rh       6.64940221       0.76780683       2.26233435        3       0.00000000       0.00000000       0.00000000       0.08351227
Rh       2.65976088       3.07122732       2.26233435        3       0.00000000      -0.00000000       0.00000000       0.08351227
Rh       5.31952177       3.07122732       2.26233435        3       0.00000000      -0.00000000       0.00000000       0.08351227
Rh       7.97928265       3.07122732       2.26233435        3       0.00000000       0.00000000      -0.00000000       0.08351227
Rh       3.98964133       5.37464782       2.26233435        3       0.00000000      -0.00000000       0.00000000       0.08351227
Rh       6.64940221       5.37464782       2.26233435        3       0.00000000       0.00000000       0.00000000       0.08351227
Rh       9.30916309       5.37464782       2.26233435        3       0.00000000       0.00000000      -0.00000000       0.08351227
Rh      -0.00000000       1.53561366       4.47619948        2       0.00000000      -0.00000000      -0.00000000      -0.08351227
Rh       2.65976088       1.53561366       4.47619948        2       0.00000000      -0.00000000       0.00000000      -0.08351227
Rh       5.31952177       1.53561366       4.47619948        2       0.00000000      -0.00000000      -0.00000000      -0.08351227
Rh       1.32988044       3.83903416       4.47619948        2       0.00000000      -0.00000000       0.00000000      -0.08351227
Rh       3.98964133       3.83903416       4.47619948        2       0.00000000      -0.00000000       0.00000000      -0.08351227
Rh       6.64940221       3.83903416       4.47619948        2       0.00000000       0.00000000       0.00000000      -0.08351227
Rh       2.65976088       6.14245465       4.47619948        2       0.00000000      -0.00000000      -0.00000000      -0.08351227
Rh       5.31952177       6.14245465       4.47619948        2       0.00000000      -0.00000000      -0.00000000      -0.08351227
Rh       7.97928265       6.14245465       4.47619948        2       0.00000000       0.00000000      -0.00000000      -0.08351227
Rh      -0.00000000       0.00000000       6.64445286        1       0.00000000      -0.00000000       0.00000000       0.01616299
Rh       2.65976088       0.00000000       6.64445286        1       0.00000000      -0.00000000       0.00000000       0.01616299
Rh       5.31952177       0.00000000       6.64445286        1       0.00000000       0.00000000      -0.00000000       0.01616299
Rh       1.32988044       2.30342049       6.64445286        1       0.00000000      -0.00000000       0.00000000       0.01616299
Rh       3.98964133       2.30342049       6.64445286        1       0.00000000       0.00000000       0.00000000       0.01616299
Rh       6.64940221       2.30342049       6.64445286        1       0.00000000       0.00000000       0.00000000       0.01616299
Rh       2.65976088       4.60684099       6.64445286        1       0.00000000      -0.00000000       0.00000000       0.01616299
Rh       5.31952177       4.60684099       6.64445286        1       0.00000000      -0.00000000      -0.00000000       0.01616299
Rh       7.97928265       4.60684099       6.64445286        1       0.00000000       0.00000000      -0.00000000       0.01616299
