36
Lattice="7.979282652125478 4.014786654423154e-15 4.603398524423124e-16 3.9896413260627424 6.910261480717139 4.2885637721088913e-16 0.0 0.0 21.55037188511455" Properties=species:S:1:pos:R:3:tags:I:1:initial_magmoms:R:1:forces:R:3 stress="0.0029098827306285827 3.1766598137327453e-16 2.120183374797284e-16 3.1766598137327453e-16 0.002909882730628926 -1.9729416512478445e-16 2.120183374797284e-16 -1.9729416512478445e-16 0.0036709636958706868" energy=-264.8292612881231 pbc="T T T"
Rh      -0.00000000       0.00000000       0.00000000        0       0.00000000      -0.00000000      -0.00000000       0.02559021
Rh       2.65976088       0.00000000       0.00000000        0       0.00000000      -0.00000000       0.00000000       0.02559021
Rh       5.31952177       0.00000000       0.00000000        0       0.00000000      -0.00000000       0.00000000       0.02559021
Rh       1.32988044       2.30342049       0.00000000        0       0.00000000      -0.00000000       0.00000000       0.02559021
Rh       3.98964133       2.30342049       0.00000000        0       0.00000000      -0.00000000       0.00000000       0.02559021
Rh       6.64940221       2.30342049       0.00000000        0       0.00000000       0.00000000      -0.00000000       0.02559021
Rh       2.65976088       4.60684099       0.00000000        0       0.00000000      -0.00000000       0.00000000       0.02559021
Rh       5.31952177       4.60684099       0.00000000        0       0.00000000      -0.00000000      -0.00000000       0.02559021
Rh       7.97928265       4.60684099       0.00000000        0       0.00000000       0.00000000      -0.00000000       0.02559021
Rh       1.32988044       0.76780683       2.16825338        1       0.00000000      -0.00000000       0.00000000       0.10402823
Rh       3.98964133       0.76780683       2.16825338        1       0.00000000       0.00000000      -0.00000000       0.10402823
Rh       6.64940221       0.76780683       2.16825338        1       0.00000000       0.00000000      -0.00000000       0.10402823
Rh       2.65976088       3.07122732       2.16825338        1       0.00000000      -0.00000000      -0.00000000       0.10402823
Rh       5.31952177       3.07122732       2.16825338        1       0.00000000      -0.00000000       0.00000000       0.10402823
Rh       7.97928265       3.07122732       2.16825338        1       0.00000000       0.00000000      -0.00000000       0.10402823
Rh       3.98964133       5.37464782       2.16825338        1       0.00000000      -0.00000000       0.00000000       0.10402823
Rh       6.64940221       5.37464782       2.16825338        1       0.00000000       0.00000000       0.00000000       0.10402823
Rh       9.30916309       5.37464782       2.16825338        1       0.00000000       0.00000000      -0.00000000       0.10402823
Rh      -0.00000000       1.53561366       4.37427950        2       0.00000000      -0.00000000      -0.00000000      -0.06788601
Rh       2.65976088       1.53561366       4.37427950        2       0.00000000      -0.00000000       0.00000000      -0.06788601
Rh       5.31952177       1.53561366       4.37427950        2       0.00000000      -0.00000000      -0.00000000      -0.06788601
Rh       1.32988044       3.83903416       4.37427950        2       0.00000000      -0.00000000      -0.00000000      -0.06788601
Rh       3.98964133       3.83903416       4.37427950        2       0.00000000       0.00000000       0.00000000      -0.06788601
Rh       6.64940221       3.83903416       4.37427950        2       0.00000000       0.00000000      -0.00000000      -0.06788601
Rh       2.65976088       6.14245465       4.37427950        2       0.00000000      -0.00000000      -0.00000000      -0.06788601
Rh       5.31952177       6.14245465       4.37427950        2       0.00000000       0.00000000      -0.00000000      -0.06788601
Rh       7.97928265       6.14245465       4.37427950        2       0.00000000       0.00000000       0.00000000      -0.06788601
Rh      -0.00000000       0.00000000       6.54807132        3       0.00000000      -0.00000000      -0.00000000      -0.06173243
Rh       2.65976088       0.00000000       6.54807132        3       0.00000000      -0.00000000      -0.00000000      -0.06173243
Rh       5.31952177       0.00000000       6.54807132        3       0.00000000      -0.00000000      -0.00000000      -0.06173243
Rh       1.32988044       2.30342049       6.54807132        3       0.00000000       0.00000000       0.00000000      -0.06173243
Rh       3.98964133       2.30342049       6.54807132        3       0.00000000       0.00000000       0.00000000      -0.06173243
Rh       6.64940221       2.30342049       6.54807132        3       0.00000000      -0.00000000      -0.00000000      -0.06173243
Rh       2.65976088       4.60684099       6.54807132        3       0.00000000      -0.00000000       0.00000000      -0.06173243
Rh       5.31952177       4.60684099       6.54807132        3       0.00000000       0.00000000      -0.00000000      -0.06173243
Rh       7.97928265       4.60684099       6.54807132        3       0.00000000       0.00000000       0.00000000      -0.06173243
