36
Lattice="8.075029797763122 1.117050279802324e-15 -2.7844496532153836e-16 4.03751489888156 6.993180941179185 -4.915159972894024e-16 -3.0313248288209095e-16 -4.428606811767992e-16 9.179433035214405" Properties=species:S:1:pos:R:3:tags:I:1:initial_magmoms:R:1:forces:R:3 stress="-0.0001541884407091701 7.013844388059527e-17 -1.6724996807008933e-16 7.013844388059527e-17 -0.00015418844070819865 -5.213220563998793e-16 -1.6724996807008933e-16 -5.213220563998793e-16 -0.00012534521049664682" energy=-339.3172444341659 pbc="T T T"
Ir       0.00000000      -0.00000000       0.10662602        4       0.00000000       0.00000000      -0.00000000       0.02245045
Ir       2.69167660      -0.00000000       0.10662602        4       0.00000000       0.00000000       0.00000000       0.02245045
Ir       5.38335320      -0.00000000       0.10662602        4       0.00000000      -0.00000000      -0.00000000       0.02245045
Ir       1.34583830       2.33106031       0.10662602        4       0.00000000       0.00000000      -0.00000000       0.02245045
Ir       4.03751490       2.33106031       0.10662602        4       0.00000000       0.00000000      -0.00000000       0.02245045
Ir       6.72919150       2.33106031       0.10662602        4       0.00000000      -0.00000000      -0.00000000       0.02245045
Ir       2.69167660       4.66212063       0.10662602        4       0.00000000       0.00000000       0.00000000       0.02245045
Ir       5.38335320       4.66212063       0.10662602        4       0.00000000      -0.00000000       0.00000000       0.02245045
Ir       8.07502980       4.66212063       0.10662602        4       0.00000000       0.00000000       0.00000000       0.02245045
Ir       1.34583830       0.77702010       2.32365560        3       0.00000000       0.00000000      -0.00000000       0.01706143
Ir       4.03751490       0.77702010       2.32365560        3       0.00000000       0.00000000      -0.00000000       0.01706143
Ir       6.72919150       0.77702010       2.32365560        3       0.00000000      -0.00000000      -0.00000000       0.01706143
Ir       2.69167660       3.10808042       2.32365560        3       0.00000000      -0.00000000       0.00000000       0.01706143
Ir       5.38335320       3.10808042       2.32365560        3       0.00000000      -0.00000000       0.00000000       0.01706143
Ir       8.07502980       3.10808042       2.32365560        3       0.00000000       0.00000000       0.00000000       0.01706143
Ir       4.03751490       5.43914073       2.32365560        3       0.00000000       0.00000000       0.00000000       0.01706143
Ir       6.72919150       5.43914073       2.32365560        3       0.00000000      -0.00000000       0.00000000       0.01706143
Ir       9.42086810       5.43914073       2.32365560        3       0.00000000      -0.00000000       0.00000000       0.01706143
Ir       0.00000000       1.55404021       4.56091917        2       0.00000000       0.00000000      -0.00000000      -0.01706143
Ir       2.69167660       1.55404021       4.56091917        2       0.00000000       0.00000000      -0.00000000      -0.01706143
Ir       5.38335320       1.55404021       4.56091917        2       0.00000000      -0.00000000      -0.00000000      -0.01706143
Ir       1.34583830       3.88510052       4.56091917        2       0.00000000       0.00000000       0.00000000      -0.01706143
Ir       4.03751490       3.88510052       4.56091917        2       0.00000000      -0.00000000      -0.00000000      -0.01706143
Ir       6.72919150       3.88510052       4.56091917        2       0.00000000      -0.00000000      -0.00000000      -0.01706143
Ir       2.69167660       6.21616084       4.56091917        2       0.00000000      -0.00000000       0.00000000      -0.01706143
Ir       5.38335320       6.21616084       4.56091917        2       0.00000000      -0.00000000       0.00000000      -0.01706143
Ir       8.07502980       6.21616084       4.56091917        2       0.00000000       0.00000000       0.00000000      -0.01706143
Ir       0.00000000      -0.00000000       6.77794875        1       0.00000000       0.00000000      -0.00000000      -0.02245045
Ir       2.69167660      -0.00000000       6.77794875        1       0.00000000      -0.00000000      -0.00000000      -0.02245045
Ir       5.38335320      -0.00000000       6.77794875        1       0.00000000      -0.00000000      -0.00000000      -0.02245045
Ir       1.34583830       2.33106031       6.77794875        1       0.00000000       0.00000000      -0.00000000      -0.02245045
Ir       4.03751490       2.33106031       6.77794875        1       0.00000000       0.00000000      -0.00000000      -0.02245045
Ir       6.72919150       2.33106031       6.77794875        1       0.00000000      -0.00000000      -0.00000000      -0.02245045
Ir       2.69167660       4.66212063       6.77794875        1       0.00000000       0.00000000       0.00000000      -0.02245045
Ir       5.38335320       4.66212063       6.77794875        1       0.00000000      -0.00000000       0.00000000      -0.02245045
Ir       8.07502980       4.66212063       6.77794875        1       0.00000000       0.00000000       0.00000000      -0.02245045
