37
Lattice="8.12023694367038 -2.502811802376711e-15 -3.0154273300879247e-16 4.060118471835193 7.032331477967455 9.12873696737661e-17 0.0 0.0 21.94967493036051" Properties=species:S:1:pos:R:3:tags:I:1:initial_magmoms:R:1:forces:R:3 stress="0.001604197777206072 5.027085954125512e-06 2.909307470271549e-05 5.027085954125512e-06 0.00021269585095087806 0.00019675649461192962 2.909307470271549e-05 0.00019675649461192962 -0.0020588015241531695" energy=-235.39573718659773 pbc="T T T"
Pt       0.00000000       0.00000000       0.00000000        0       0.00000000       0.00049827      -0.00447008      -0.20019439
Pt       2.70674565       0.00000000       0.00000000        0       0.00000000      -0.00040612      -0.00453602      -0.20039375
Pt       5.41349130       0.00000000       0.00000000        0       0.00000000       0.00000721      -0.00901099      -0.20702410
Pt       1.35337282       2.34411049       0.00000000        0       0.00000000      -0.00008423       0.00418326      -0.19966091
Pt       4.06011847       2.34411049       0.00000000        0       0.00000000      -0.00265576       0.00441805      -0.21465102
Pt       6.76686412       2.34411049       0.00000000        0       0.00000000       0.00260592       0.00452198      -0.21422562
Pt       2.70674565       4.68822099       0.00000000        0       0.00000000       0.00777825       0.00197947      -0.23566049
Pt       5.41349130       4.68822099       0.00000000        0       0.00000000      -0.00006118      -0.00356218      -0.21092530
Pt       8.12023694       4.68822099       0.00000000        0       0.00000000      -0.00807033       0.00195776      -0.23670451
Pt       1.35337282       0.78137016       2.31293021        1       0.00000000      -0.00250192      -0.01161374       0.30752552
Pt       4.06011847       0.78137016       2.31293021        1       0.00000000      -0.04291440      -0.08146686       0.31349400
Pt       6.76686412       0.78137016       2.31293021        1       0.00000000       0.04498619      -0.08204043       0.31755129
Pt       2.70674565       3.12548066       2.31293021        1       0.00000000      -0.01596994       0.02470822       0.18868277
Pt       5.41349130       3.12548066       2.31293021        1       0.00000000       0.00096000       0.00972763       0.16588194
Pt       8.12023694       3.12548066       2.31293021        1       0.00000000       0.01443409       0.02413932       0.19064990
Pt       4.06011847       5.46959115       2.31293021        1       0.00000000      -0.10205169       0.05391215       0.28903351
Pt       6.76686412       5.46959115       2.31293021        1       0.00000000       0.10210758       0.05109034       0.28740140
Pt       9.47360977       5.46959115       2.31293021        1       0.00000000      -0.00000202       0.05864559       0.33855467
Pt       0.00408841       1.55437627       4.61875563        2       0.00000000      -0.00493063       0.01369124      -0.04762189
Pt       2.70290008       1.55476221       4.61747622        2       0.00000000       0.00870640       0.01055612      -0.04416351
Pt       5.41350521       1.56748489       4.58717762        2       0.00000000       0.00507208       0.00712311       0.00984170
Pt       1.35343087       3.92574056       4.58587361        2       0.00000000       0.00291493       0.00129016      -0.01057851
Pt       4.05408605       3.90764694       4.58777784        2       0.00000000       0.00069938       0.01157732      -0.01722747
Pt       6.77315925       3.90770907       4.58811436        2       0.00000000       0.00281429       0.00999156      -0.02035633
Pt       2.72690791       6.27069645       4.65104830        2       0.00000000      -0.00632768      -0.00011137      -0.02023332
Pt       5.41365729       6.25132832       4.61749331        2       0.00000000       0.00274356       0.01525015      -0.05157923
Pt       8.10211248       6.27051330       4.65004801        2       0.00000000       0.00165895       0.00190427      -0.01167722
Pt      -0.02795535      -0.01855176       7.11998962        3       0.00000000       0.04424823      -0.02287823      -0.04862488
Pt       2.74024744      -0.01905447       7.11109628        3       0.00000000      -0.02564403      -0.01939572      -0.04910630
Pt       5.41867668       0.00375888       6.94318867        3       0.00000000      -0.02724646      -0.02414803      -0.00902488
Pt       1.35557272       2.37290752       6.90686495        3       0.00000000       0.00002744      -0.04154451      -0.03476367
Pt       4.06084789       2.33823526       6.94035509        3       0.00000000       0.00248606      -0.01856208      -0.02484150
Pt       6.77035628       2.33751978       6.94058921        3       0.00000000       0.00165563      -0.00704771      -0.02289164
Pt       2.70712717       4.67937408       6.95212149        3       0.00000000      -0.00317276      -0.03355854      -0.01866988
Pt       5.41562518       4.64378119       6.89536480        3       0.00000000      -0.00262569       0.00199344      -0.02790647
Pt       8.12419800       4.67835673       6.95176139        3       0.00000000       0.00828132      -0.02101195      -0.02005695
O        1.36166910       0.02627350       8.50563453        0       0.00000000      -0.01002096       0.07229728      -0.00985294
