3
Lattice="15.0 0.0 0.0 0.0 15.0 0.0 0.0 0.0 15.0" Properties=species:S:1:pos:R:3:initial_magmoms:R:1:forces:R:3 energy=-14.18684022753907 free_energy=-14.18684022753907 stress="6.369362889599881e-07 3.0839528461809904e-20 3.0119939464367674e-19 3.0839528461809904e-20 0.0 6.167905692361981e-20 3.0119939464367674e-19 6.167905692361981e-20 3.2189023096788677e-06" pbc="T T T"
O        7.50000000       7.50000000       7.19675031       0.00010000       0.00000000       0.00000000       0.01804993
H        8.26585352       7.50000000       7.79862484       0.00010000      -0.00140344       0.00000000      -0.00902497
H        6.73414648       7.50000000       7.79862484       0.00010000       0.00140344       0.00000000      -0.00902497
