37
Lattice="7.4846239402392785 2.4779678226937893e-34 0.0 3.742311970119648 6.481874470020422 0.0 0.0 0.0 20.98755986535968" Properties=species:S:1:pos:R:3:tags:I:1:initial_magmoms:R:1:forces:R:3 energy=-192.24803964461412 free_energy=-192.24803964461412 stress="0.009714413118898334 -1.5720454119746739e-06 1.2855325215936233e-06 -1.5720454119746739e-06 0.013958671586062876 3.952499203450686e-05 1.2855325215936233e-06 3.952499203450686e-05 -0.0077176173282239025" pbc="T T T"
Ni       0.00000000      -0.00000000       0.10000000        0       1.00000000      -0.00005890       0.00191940      -0.27124132
Ni       2.49487465      -0.00000000       0.10000000        0       1.00000000       0.00005388       0.00192034      -0.27123729
Ni       4.98974929       0.00000000       0.10000000        0       1.00000000      -0.00000111      -0.00093253      -0.25752528
Ni       1.24743732       2.16062482       0.10000000        0       1.00000000      -0.00000141       0.00064520      -0.25569383
Ni       3.74231197       2.16062482       0.10000000        0       1.00000000       0.00338921       0.00015159      -0.25324843
Ni       6.23718662       2.16062482       0.10000000        0       1.00000000      -0.00339333       0.00015220      -0.25325050
Ni       2.49487465       4.32124965       0.10000000        0       1.00000000       0.00345995      -0.00155360      -0.25865449
Ni       4.98974929       4.32124965       0.10000000        0       1.00000000      -0.00000253      -0.00340736      -0.26209383
Ni       7.48462394       4.32124965       0.10000000        0       1.00000000      -0.00347333      -0.00155375      -0.25866395
Ni       1.24743732       0.72020827       2.05723380        1       1.00000000       0.00001189       0.05000754       0.13151829
Ni       3.74231197       0.72020827       2.05723380        1       1.00000000       0.02770142       0.01927536       0.10971046
Ni       6.23718662       0.72020827       2.05723380        1       1.00000000      -0.02771276       0.01920993       0.10967678
Ni       2.49487465       2.88083310       2.05723380        1       1.00000000       0.02024323       0.04839198       0.15413036
Ni       4.98974929       2.88083310       2.05723380        1       1.00000000      -0.00002980      -0.01372537       0.21975903
Ni       7.48462394       2.88083310       2.05723380        1       1.00000000      -0.02030545       0.04837880       0.15407221
Ni       3.74231197       5.04145792       2.05723380        1       1.00000000       0.00321631      -0.04606031       0.08581259
Ni       6.23718662       5.04145792       2.05723380        1       1.00000000      -0.00343772      -0.04601574       0.08575662
Ni       8.73206126       5.04145792       2.05723380        1       1.00000000      -0.00009654      -0.13484516      -0.05216985
Ni      -0.01282196       1.45207842       4.05684482        2       1.00000000      -0.01175352      -0.06572504       0.15581538
Ni       2.50767618       1.45208916       4.05685080        2       1.00000000       0.01162925      -0.06606396       0.15602625
Ni       4.98976246       1.43128190       4.09100847        2       1.00000000      -0.00027452       0.01807476      -0.06449582
Ni       1.24740266       3.56348347       4.09149637        2       1.00000000      -0.00002386      -0.01721193       0.00163972
Ni       3.75538656       3.61136177       4.09199599        2       1.00000000       0.02595936       0.02794148       0.01448554
Ni       6.22407863       3.61138584       4.09198118        2       1.00000000      -0.02613793       0.02790810       0.01455291
Ni       2.47554849       5.73707841       4.03784506        2       1.00000000       0.12570858       0.07712889       0.26478019
Ni       4.98966784       5.76678981       4.04118469        2       1.00000000       0.00025020       0.04015337       0.09862456
Ni       7.50381170       5.73709674       4.03782470        2       1.00000000      -0.12570138       0.07728790       0.26545415
Ni      -0.11741834       0.00792905       6.04265151        3       1.00000000       0.13259056      -0.02688494       0.34378917
Ni       2.61184049       0.00786271       6.04279090        3       1.00000000      -0.12772047      -0.02663101       0.34021041
Ni       4.98963709      -0.00757230       6.05241927        3       1.00000000      -0.00069139       0.02156012      -0.07763004
Ni       1.24735452       2.09806767       6.13764429        3       1.00000000      -0.00010381       0.08158059       0.04416545
Ni       3.78698290       2.22517486       6.06940010        3       1.00000000      -0.11564224      -0.13834384      -0.01787734
Ni       6.19232689       2.22521820       6.06939347        3       1.00000000       0.11566321      -0.13831097      -0.01782332
Ni       2.45282693       4.27146982       6.06280005        3       1.00000000       0.11285413       0.12205414      -0.00822021
Ni       4.98964610       4.40000779       6.14554328        3       1.00000000      -0.00012711      -0.04598010       0.07156499
Ni       7.52651609       4.27145214       6.06283238        3       1.00000000      -0.11288476       0.12232777      -0.00842277
O        1.24740521       0.00186928       7.22013432        0       1.00000000      -0.00315733      -0.03282382      -0.23329678
