37
Lattice="7.31716277299497 -1.5312158836541236e-14 3.502625384595088e-15 3.6585813864974996 6.336848845039428 1.6265961235805369e-15 0.0 0.0 21.04428422323305" Properties=species:S:1:pos:R:3:tags:I:1:initial_magmoms:R:1:forces:R:3 stress="0.002064773652941573 1.5505195428619878e-16 8.438191824165323e-17 1.5505195428619878e-16 0.0020647736529421975 -1.427107954572036e-16 8.438191824165323e-17 -1.427107954572036e-16 0.0001378380651249336" energy=-204.05071682099845 pbc="T T T"
Ni       0.00000000      -0.00000000       0.00000000        0       1.00000000       0.00000000       0.00000000      -0.02882570
Ni       2.43905426      -0.00000000       0.00000000        0       1.00000000      -0.00016574      -0.00159301      -0.02441864
Ni       4.87810852      -0.00000000       0.00000000        0       1.00000000       0.00016574      -0.00159301      -0.02441864
Ni       1.21952713       2.11228295       0.00000000        0       1.00000000      -0.00146245       0.00065297      -0.02441864
Ni       3.65858139       2.11228295       0.00000000        0       1.00000000       0.00000000       0.00000000      -0.02499735
Ni       6.09763564       2.11228295       0.00000000        0       1.00000000       0.00146245       0.00065297      -0.02441864
Ni       2.43905426       4.22456590       0.00000000        0       1.00000000      -0.00129671       0.00094004      -0.02441864
Ni       4.87810852       4.22456590       0.00000000        0       1.00000000       0.00129671       0.00094004      -0.02441864
Ni       7.31716277       4.22456590       0.00000000        0       1.00000000      -0.00000000      -0.00000000      -0.01748324
Ni       1.21952713       0.70409432       2.01167273        1       1.00000000      -0.01906220      -0.01100557       0.05649878
Ni       3.65858139       0.70409432       2.01167273        1       1.00000000      -0.00000000      -0.00261480       0.00317925
Ni       6.09763564       0.70409432       2.01167273        1       1.00000000       0.01906220      -0.01100557       0.05649878
Ni       2.43905426       2.81637726       2.01167273        1       1.00000000      -0.00226449       0.00130740       0.00317925
Ni       4.87810852       2.81637726       2.01167273        1       1.00000000       0.00226449       0.00130740       0.00317925
Ni       7.31716277       2.81637726       2.01167273        1       1.00000000      -0.00000000       0.00436210       0.03617083
Ni       3.65858139       4.92866021       2.01167273        1       1.00000000       0.00000000       0.02201114       0.05649878
Ni       6.09763564       4.92866021       2.01167273        1       1.00000000       0.00377769      -0.00218105       0.03617083
Ni       8.53668990       4.92866021       2.01167273        1       1.00000000      -0.00377769      -0.00218105       0.03617083
Ni       0.00000000       1.40379209       4.04967946        2       1.00000000      -0.00000000      -0.01238093       0.00451764
Ni       2.43755214       1.40732138       4.03780266        2       1.00000000      -0.00088766      -0.00051249       0.00983110
Ni       4.87961064       1.40732138       4.03780266        2       1.00000000       0.00088766      -0.00051249       0.00983110
Ni       1.22146191       3.51935454       4.04040043        2       1.00000000       0.00068898      -0.00039778       0.01157783
Ni       3.65858139       3.52220608       4.03780266        2       1.00000000       0.00000000       0.00102498       0.00983110
Ni       6.09570087       3.51935454       4.04040043        2       1.00000000      -0.00068898      -0.00039778       0.01157783
Ni       2.44286177       5.63495280       4.04967946        2       1.00000000       0.01072220       0.00619046       0.00451764
Ni       4.87430100       5.63495280       4.04967946        2       1.00000000      -0.01072220       0.00619046       0.00451764
Ni       7.31716277       5.63498862       4.04040043        2       1.00000000       0.00000000       0.00079557       0.01157783
Ni       0.00000000      -0.00000000       6.13575255        3       1.00000000      -0.00000000      -0.00000000      -0.08745482
Ni       2.45197853      -0.00004130       6.05957305        3       1.00000000       0.01130140      -0.00317841      -0.00455382
Ni       4.86518425      -0.00004130       6.05957305        3       1.00000000      -0.01130140      -0.00317841      -0.00455382
Ni       1.22595350       2.12349634       6.05957305        3       1.00000000       0.00289812       0.01137650      -0.00455382
Ni       3.65858139       2.11228295       6.03625175        3       1.00000000      -0.00000000       0.00000000       0.00332000
Ni       6.09120928       2.12349634       6.05957305        3       1.00000000      -0.00289812       0.01137650      -0.00455382
Ni       2.43255636       4.21339380       6.05957305        3       1.00000000      -0.00840328      -0.00819810      -0.00455382
Ni       4.88460641       4.21339380       6.05957305        3       1.00000000       0.00840328      -0.00819810      -0.00455382
Ni       7.31716277       4.22456590       6.04440586        3       1.00000000       0.00000000       0.00000000       0.00408319
O       -0.00000000       0.00000000       7.80366514        0       0.00000000      -0.00000000       0.00000000      -0.04013352
