37
Lattice="7.4846239402392785 2.4779678226937893e-34 0.0 3.742311970119648 6.481874470020422 0.0 0.0 0.0 20.98755986535968" Properties=species:S:1:pos:R:3:tags:I:1:initial_magmoms:R:1:forces:R:3 energy=-192.8236259298485 free_energy=-192.8236259298485 stress="0.011561247515881895 -4.3816489470054727e-05 -1.4238450905705953e-05 -4.3816489470054727e-05 0.011611842439864892 -8.22057346344058e-06 -1.4238450905705953e-05 -8.22057346344058e-06 -0.0076791888452574794" pbc="T T T"
Ni       0.00000000      -0.00000000       0.10000000        0       1.00000000       0.00331199       0.00191218      -0.25580825
Ni       2.49487465      -0.00000000       0.10000000        0       1.00000000      -0.00002360      -0.00170569      -0.26791264
Ni       4.98974929       0.00000000       0.10000000        0       1.00000000      -0.00350872       0.00200464      -0.25598321
Ni       1.24743732       2.16062482       0.10000000        0       1.00000000      -0.00148897       0.00083241      -0.26791264
Ni       3.74231197       2.16062482       0.10000000        0       1.00000000       0.00145218       0.00083841      -0.26788382
Ni       6.23718662       2.16062482       0.10000000        0       1.00000000      -0.00007484       0.00025255      -0.25499466
Ni       2.49487465       4.32124965       0.10000000        0       1.00000000      -0.00001829      -0.00404096      -0.25598321
Ni       4.98974929       4.32124965       0.10000000        0       1.00000000       0.00018130      -0.00019109      -0.25499466
Ni       7.48462394       4.32124965       0.10000000        0       1.00000000      -0.00018502      -0.00010682      -0.25502836
Ni       1.24743732       0.72020827       2.05723380        1       1.00000000      -0.03869634      -0.02234134       0.12684694
Ni       3.74231197       0.72020827       2.05723380        1       1.00000000       0.03581815      -0.02086287       0.12577013
Ni       6.23718662       0.72020827       2.05723380        1       1.00000000      -0.00154181      -0.01624486       0.10346470
Ni       2.49487465       2.88083310       2.05723380        1       1.00000000      -0.00015870       0.04145086       0.12577013
Ni       4.98974929       2.88083310       2.05723380        1       1.00000000       0.01499726       0.00865867       0.15428116
Ni       7.48462394       2.88083310       2.05723380        1       1.00000000      -0.01522889       0.00872163       0.15251241
Ni       3.74231197       5.04145792       2.05723380        1       1.00000000      -0.01483936       0.00678719       0.10346470
Ni       6.23718662       5.04145792       2.05723380        1       1.00000000      -0.00006129      -0.01754942       0.15251241
Ni       8.73206126       5.04145792       2.05723380        1       1.00000000       0.01462269       0.00844242       0.10259983
Ni      -0.00277211       1.44243287       4.07028921        2       1.00000000       0.05475105       0.03185590       0.11092433
Ni       2.49383199       1.43981457       4.03600143        2       1.00000000       0.00171621       0.00099086       0.12929008
Ni       4.99039497       1.44217601       4.07046526        2       1.00000000      -0.05511136       0.03650217       0.11740386
Ni       1.24510388       3.60163494       4.07018361        2       1.00000000      -0.00494610      -0.06450034       0.11086041
Ni       3.74415855       3.60072081       4.07046526        2       1.00000000       0.00405613      -0.06597892       0.11740386
Ni       6.23734918       3.60113523       4.08407612        2       1.00000000      -0.00482232      -0.00278417      -0.07100147
Ni       2.49509184       5.76179159       4.07017548        2       1.00000000      -0.00352652      -0.00203604      -0.02291005
Ni       4.99010942       5.75825732       4.07028921        2       1.00000000       0.05496355       0.03148785       0.11092433
Ni       7.48397127       5.75934859       4.07018361        2       1.00000000      -0.05833199       0.02796672       0.11086041
Ni      -0.03073303      -0.01774372       6.05559174        3       1.00000000       0.04751695       0.02743392      -0.01010625
Ni       2.49262866      -0.02551908       6.12567952        3       1.00000000       0.00157939      -0.05391288       0.22501007
Ni       5.01890563      -0.01816179       6.05575969        3       1.00000000      -0.05583669       0.03181503      -0.01012313
Ni       1.22421416       2.17143928       6.12567952        3       1.00000000      -0.04590023       0.02832423       0.22501007
Ni       3.75639206       2.16875397       6.13049118        3       1.00000000       0.10611268       0.06126418       0.17625833
Ni       6.23458184       2.16482269       6.05593334        3       1.00000000      -0.00437507       0.00706779      -0.00438414
Ni       2.49372425       4.35558067       6.05575969        3       1.00000000      -0.00036572      -0.06426351      -0.01012313
Ni       4.99208236       4.31689491       6.05593334        3       1.00000000       0.00393335      -0.00732281      -0.00438414
Ni       7.47897188       4.31798643       6.05506051        3       1.00000000      -0.00626375      -0.00361638       0.00008565
O        2.49142316       1.43842383       7.23377039        0       1.00000000      -0.02970732      -0.01715153      -0.11172007
