37
Lattice="7.31716277299497 -1.5312158836541236e-14 3.502625384595088e-15 3.6585813864974996 6.336848845039428 1.6265961235805369e-15 0.0 0.0 21.04428422323305" Properties=species:S:1:pos:R:3:tags:I:1:initial_magmoms:R:1:forces:R:3 stress="-0.0008846645047043532 1.4733387059509446e-05 4.8429642695844854e-05 1.4733387059509446e-05 0.0021054158243522785 7.70458131271642e-06 4.8429642695844854e-05 7.70458131271642e-06 -2.8510597490012148e-05" energy=-205.34317341395348 pbc="T T T"
Ni       0.00000000      -0.00000000       0.00000000        0       1.00000000      -0.00000868       0.00026292      -0.03022258
Ni       2.43905426      -0.00000000       0.00000000        0       1.00000000       0.00012599       0.00026932      -0.03025449
Ni       4.87810852      -0.00000000       0.00000000        0       1.00000000       0.00004778      -0.00410384      -0.01971443
Ni       1.21952713       2.11228295       0.00000000        0       1.00000000       0.00005642      -0.00072939      -0.02203132
Ni       3.65858139       2.11228295       0.00000000        0       1.00000000       0.00007722       0.00062051      -0.02553882
Ni       6.09763564       2.11228295       0.00000000        0       1.00000000       0.00009077       0.00061743      -0.02544890
Ni       2.43905426       4.22456590       0.00000000        0       1.00000000       0.00090137       0.00154746      -0.01630960
Ni       4.87810852       4.22456590       0.00000000        0       1.00000000       0.00004236       0.00002495      -0.02826964
Ni       7.31716277       4.22456590       0.00000000        0       1.00000000      -0.00082203       0.00155058      -0.01632102
Ni       1.21952713       0.70409432       2.01167273        1       1.00000000       0.00089821       0.00056760       0.09828893
Ni       3.65858139       0.70409432       2.01167273        1       1.00000000      -0.01884572      -0.01188959       0.01340058
Ni       6.09763564       0.70409432       2.01167273        1       1.00000000       0.02232372      -0.01213508       0.01368279
Ni       2.43905426       2.81637726       2.01167273        1       1.00000000       0.00153719       0.00248007       0.03945587
Ni       4.87810852       2.81637726       2.01167273        1       1.00000000       0.00150714       0.01396340      -0.00975991
Ni       7.31716277       2.81637726       2.01167273        1       1.00000000       0.00078130       0.00216165       0.04036099
Ni       3.65858139       4.92866021       2.01167273        1       1.00000000       0.00299594       0.01656933       0.05648760
Ni       6.09763564       4.92866021       2.01167273        1       1.00000000      -0.00101668       0.01632442       0.05651975
Ni       8.53668990       4.92866021       2.01167273        1       1.00000000       0.00110033      -0.03127564       0.01450273
Ni      -0.00118026       1.40628060       4.04467654        2       1.00000000      -0.00231684      -0.00454200      -0.00697797
Ni       2.44247837       1.40623033       4.04424421        2       1.00000000       0.00221109      -0.00409697      -0.00332038
Ni       4.87944936       1.40792731       4.02627523        2       1.00000000      -0.00107687      -0.00069963       0.00813907
Ni       1.22060987       3.50417441       4.04338855        2       1.00000000      -0.00055570      -0.01239697       0.01370623
Ni       3.66714645       3.52885441       4.04012119        2       1.00000000       0.00543021       0.00237670       0.02120845
Ni       6.09127132       3.52891215       4.04027970        2       1.00000000      -0.00599983       0.00277371       0.02126320
Ni       2.44256036       5.63367260       4.04396134        2       1.00000000       0.00680231      -0.00366280      -0.01006918
Ni       4.87913536       5.63802026       4.04843525        2       1.00000000      -0.00237505       0.00683610      -0.08050307
Ni       7.31550681       5.63374526       4.04382388        2       1.00000000      -0.01089845      -0.00274519      -0.00977745
Ni      -0.07189953       0.00049743       6.12436369        3       1.00000000      -0.02447444       0.00483380      -0.01138251
Ni       2.51054171       0.00060761       6.12511231        3       1.00000000       0.05024898       0.00405217      -0.02847132
Ni       4.87771373       0.00512027       6.03300648        3       1.00000000       0.01209126      -0.01245262      -0.04205009
Ni       1.22167351       2.09901053       6.11142113        3       1.00000000      -0.00513603       0.04827601      -0.00015065
Ni       3.68362771       2.13924853       6.02923330        3       1.00000000      -0.01632072      -0.01453050       0.00622033
Ni       6.07697092       2.14025263       6.02974126        3       1.00000000       0.00794444      -0.02127526       0.00394012
Ni       2.42035415       4.19809168       6.03680373        3       1.00000000       0.00754831       0.03578781      -0.00838670
Ni       4.88019668       4.23937076       6.11688291        3       1.00000000      -0.00453540      -0.01160494       0.02528474
Ni       7.34033960       4.19918606       6.03687705        3       1.00000000      -0.01677823       0.02907850      -0.00819984
O        1.22000694      -0.00963215       7.34810237        0       0.00000000      -0.01360164      -0.04283402       0.00069852
