37
Lattice="7.4846239402392785 2.4779678226937893e-34 0.0 3.742311970119648 6.481874470020422 0.0 0.0 0.0 20.98755986535968" Properties=species:S:1:pos:R:3:tags:I:1:initial_magmoms:R:1:forces:R:3 energy=-192.82494453304727 free_energy=-192.82494453304727 stress="0.011656736689513373 5.954444569496784e-06 1.6220301469137732e-06 5.954444569496784e-06 0.011649861089165242 9.364795417573442e-07 1.6220301469137732e-06 9.364795417573442e-07 -0.007585789156029865" pbc="T T T"
Ni       0.00000000      -0.00000000       0.10000000        0       1.00000000       0.00026439       0.00015264      -0.26480699
Ni       2.49487465      -0.00000000       0.10000000        0       1.00000000      -0.00029932       0.00017114      -0.26479631
Ni       4.98974929       0.00000000       0.10000000        0       1.00000000      -0.00002852       0.00003185      -0.25079022
Ni       1.24743732       2.16062482       0.10000000        0       1.00000000      -0.00000145      -0.00034479      -0.26479631
Ni       3.74231197       2.16062482       0.10000000        0       1.00000000       0.00219091       0.00126492      -0.25855086
Ni       6.23718662       2.16062482       0.10000000        0       1.00000000      -0.00225857       0.00129727      -0.25861968
Ni       2.49487465       4.32124965       0.10000000        0       1.00000000       0.00001332      -0.00004063      -0.25079022
Ni       4.98974929       4.32124965       0.10000000        0       1.00000000      -0.00000581      -0.00260461      -0.25861968
Ni       7.48462394       4.32124965       0.10000000        0       1.00000000      -0.00014564      -0.00008409      -0.25091885
Ni       1.24743732       0.72020827       2.05723380        1       1.00000000       0.00054434       0.00031428       0.16338092
Ni       3.74231197       0.72020827       2.05723380        1       1.00000000       0.02750749      -0.00821504       0.12949620
Ni       6.23718662       0.72020827       2.05723380        1       1.00000000      -0.02835977      -0.00903140       0.12877160
Ni       2.49487465       2.88083310       2.05723380        1       1.00000000       0.00663931       0.02792970       0.12949620
Ni       4.98974929       2.88083310       2.05723380        1       1.00000000      -0.00048821      -0.00028187       0.17661582
Ni       7.48462394       2.88083310       2.05723380        1       1.00000000      -0.00747737       0.02770012       0.12842462
Ni       3.74231197       5.04145792       2.05723380        1       1.00000000      -0.02200131      -0.02004458       0.12877160
Ni       6.23718662       5.04145792       2.05723380        1       1.00000000       0.02025032      -0.02032565       0.12842462
Ni       8.73206126       5.04145792       2.05723380        1       1.00000000      -0.00085454      -0.00049337       0.06890531
Ni      -0.00742091       1.44404868       4.05715952        2       1.00000000       0.03448501      -0.01738600       0.10651811
Ni       2.50199169       1.44452557       4.05754228        2       1.00000000      -0.03565250      -0.02058398       0.10623828
Ni       4.98970184       1.43871922       4.08235180        2       1.00000000      -0.00184528       0.00586146      -0.03821697
Ni       1.24687632       3.59798343       4.07144534        2       1.00000000       0.00049170      -0.07368758       0.14517524
Ni       3.74081832       3.60184894       4.08235180        2       1.00000000       0.00415353      -0.00452879      -0.03821697
Ni       6.23819612       3.60162421       4.08230171        2       1.00000000      -0.00527325      -0.00304451      -0.03732178
Ni       2.49626285       5.76246767       4.07171642        2       1.00000000       0.06369102       0.03677202       0.13605952
Ni       4.98918435       5.75342343       4.05715952        2       1.00000000       0.00218579       0.03855789       0.10651811
Ni       7.48169518       5.76270933       4.07144534        2       1.00000000      -0.06356946       0.03726961       0.14517524
Ni      -0.02574197      -0.01486213       6.11992508        3       1.00000000      -0.04544765      -0.02623921       0.23896746
Ni       2.51656271      -0.01378162       6.12234902        3       1.00000000       0.08240221      -0.04598238       0.20873761
Ni       4.98897586      -0.01011611       6.05267865        3       1.00000000      -0.00559701       0.03786672       0.02713054
Ni       1.24634612       2.18629805       6.12234902        3       1.00000000       0.00137920       0.09435360       0.20873761
Ni       3.77180831       2.17765454       6.06357195        3       1.00000000      -0.06042098      -0.03488407      -0.02805902
Ni       6.20695139       2.17752127       6.06358134        3       1.00000000       0.05672560      -0.03335393      -0.02863071
Ni       2.48572712       4.32563789       6.05267865        3       1.00000000       0.02999503      -0.02378051       0.02713054
Ni       4.98926443       4.28661695       6.06358134        3       1.00000000      -0.00052255       0.06580278      -0.02863071
Ni       7.49220281       4.32562531       6.05315482        3       1.00000000      -0.03088659      -0.01783238       0.02403442
O        1.24678804       0.71983341       7.22431415        0       1.00000000      -0.02178338      -0.01257664      -0.14094428
