37
Lattice="7.4846239402392785 2.4779678226937893e-34 0.0 3.742311970119648 6.481874470020422 0.0 0.0 0.0 20.98755986535968" Properties=species:S:1:pos:R:3:tags:I:1:initial_magmoms:R:1:forces:R:3 energy=-190.61913932328727 free_energy=-190.61913932328727 stress="0.011720816965860833 3.318952279260919e-16 1.5240762105259299e-16 3.318952279260919e-16 0.011720816965862486 -1.7026062560133177e-16 1.5240762105259299e-16 -1.7026062560133177e-16 -0.01122805680841353" pbc="T T T"
Ni       0.00000000      -0.00000000       0.10000000        0       1.00000000       0.00000000      -0.00000000      -0.29950059
Ni       2.49487465      -0.00000000       0.10000000        0       1.00000000       0.00345328       0.00416943      -0.26494322
Ni       4.98974929       0.00000000       0.10000000        0       1.00000000      -0.00345328       0.00416943      -0.26494322
Ni       1.24743732       2.16062482       0.10000000        0       1.00000000       0.00533747       0.00090591      -0.26494322
Ni       3.74231197       2.16062482       0.10000000        0       1.00000000       0.00000000      -0.00000000      -0.24218668
Ni       6.23718662       2.16062482       0.10000000        0       1.00000000      -0.00533747       0.00090591      -0.26494322
Ni       2.49487465       4.32124965       0.10000000        0       1.00000000       0.00188419      -0.00507534      -0.26494322
Ni       4.98974929       4.32124965       0.10000000        0       1.00000000      -0.00188419      -0.00507534      -0.26494322
Ni       7.48462394       4.32124965       0.10000000        0       1.00000000      -0.00000000       0.00000000      -0.28720891
Ni       1.24743732       0.72020827       2.05723380        1       1.00000000       0.06957543       0.04016939      -0.02863576
Ni       3.74231197       0.72020827       2.05723380        1       1.00000000       0.00000000       0.01121414       0.22522287
Ni       6.23718662       0.72020827       2.05723380        1       1.00000000      -0.06957543       0.04016939      -0.02863576
Ni       2.49487465       2.88083310       2.05723380        1       1.00000000       0.00971173      -0.00560707       0.22522287
Ni       4.98974929       2.88083310       2.05723380        1       1.00000000      -0.00971173      -0.00560707       0.22522287
Ni       7.48462394       2.88083310       2.05723380        1       1.00000000      -0.00000000       0.28999093      -0.17928341
Ni       3.74231197       5.04145792       2.05723380        1       1.00000000       0.00000000      -0.08033878      -0.02863576
Ni       6.23718662       5.04145792       2.05723380        1       1.00000000       0.25113951      -0.14499546      -0.17928341
Ni       8.73206126       5.04145792       2.05723380        1       1.00000000      -0.25113951      -0.14499546      -0.17928341
Ni       0.00000000       1.53431237       3.97584781        2       1.00000000       0.00000000      -0.58015104       0.50645003
Ni       2.49521995       1.44061591       4.09402262        2       1.00000000      -0.03295621      -0.01902728       0.02217280
Ni       4.98940399       1.44061591       4.09402262        2       1.00000000       0.03295621      -0.01902728       0.02217280
Ni       1.25098222       3.59899473       4.09775671        2       1.00000000       0.00475065      -0.00274279      -0.00265008
Ni       3.74231197       3.60064265       4.09402262        2       1.00000000      -0.00000000       0.03805456       0.02217280
Ni       6.23364172       3.59899473       4.09775671        2       1.00000000      -0.00475065      -0.00274279      -0.00265008
Ni       2.41355848       5.71471828       3.97584781        2       1.00000000       0.50242554       0.29007552       0.50645003
Ni       5.07106546       5.71471828       3.97584781        2       1.00000000      -0.50242554       0.29007552       0.50645003
Ni       7.48462394       5.76575949       4.09775671        2       1.00000000       0.00000000       0.00548558      -0.00265008
Ni       0.00000000       0.00000000       5.77031717        3       1.00000000       0.00000000       0.00000000       0.50217773
Ni       2.51444774      -0.00504635       6.08823031        3       1.00000000      -0.06657201      -0.01934857      -0.03067571
Ni       4.97017620      -0.00504635       6.08823031        3       1.00000000       0.06657201      -0.01934857      -0.03067571
Ni       1.25285360       2.18009879       6.08823031        3       1.00000000      -0.05004235      -0.04797877      -0.03067571
Ni       3.74231197       2.16062482       6.07718225        3       1.00000000       0.00000000      -0.00000000      -0.01692248
Ni       6.23177034       2.18009879       6.08823031        3       1.00000000       0.05004235      -0.04797877      -0.03067571
Ni       2.48071783       4.30682203       6.08823031        3       1.00000000       0.01652965       0.06732733      -0.03067571
Ni       5.00390611       4.30682203       6.08823031        3       1.00000000      -0.01652965       0.06732733      -0.03067571
Ni       7.48462394       4.32124965       6.08426739        3       1.00000000       0.00000000       0.00000000       0.01107204
O       -0.00000000      -0.00000000       7.44106114        0       1.00000000      -0.00000000      -0.00000000       0.47645311
