37
Lattice="7.31716277299497 -1.5312158836541236e-14 3.502625384595088e-15 3.6585813864974996 6.336848845039428 1.6265961235805369e-15 0.0 0.0 21.04428422323305" Properties=species:S:1:pos:R:3:tags:I:1:initial_magmoms:R:1:forces:R:3 stress="0.0010110604615831305 2.157192838978439e-05 4.435189558782642e-05 2.157192838978439e-05 0.0009861513442581023 2.5606578856660184e-05 4.435189558782642e-05 2.5606578856660184e-05 0.0015355435982643472" energy=-205.85366054631893 pbc="T T T"
Ni       0.00000000      -0.00000000       0.00000000        0       1.00000000       0.00393151       0.00226986      -0.01449004
Ni       2.43905426      -0.00000000       0.00000000        0       1.00000000       0.00006235       0.00132995      -0.02706569
Ni       4.87810852      -0.00000000       0.00000000        0       1.00000000      -0.00386600       0.00226236      -0.01433697
Ni       1.21952713       2.11228295       0.00000000        0       1.00000000       0.00118295      -0.00061098      -0.02706569
Ni       3.65858139       2.11228295       0.00000000        0       1.00000000      -0.00114400      -0.00066049      -0.02701562
Ni       6.09763564       2.11228295       0.00000000        0       1.00000000       0.00005209      -0.00196275      -0.02161465
Ni       2.43905426       4.22456590       0.00000000        0       1.00000000       0.00002626      -0.00447923      -0.01433697
Ni       4.87810852       4.22456590       0.00000000        0       1.00000000      -0.00167375       0.00102649      -0.02161465
Ni       7.31716277       4.22456590       0.00000000        0       1.00000000       0.00170049       0.00098178      -0.02158274
Ni       1.21952713       0.70409432       2.01167273        1       1.00000000       0.01444442       0.00833949       0.14754140
Ni       3.65858139       0.70409432       2.01167273        1       1.00000000      -0.01272792       0.00769074       0.14944318
Ni       6.09763564       0.70409432       2.01167273        1       1.00000000       0.00082523       0.02409975       0.05357847
Ni       2.43905426       2.81637726       2.01167273        1       1.00000000       0.00029641      -0.01486807       0.14944318
Ni       4.87810852       2.81637726       2.01167273        1       1.00000000      -0.02407714      -0.01390094       0.04390193
Ni       7.31716277       2.81637726       2.01167273        1       1.00000000       0.02470301      -0.01346119       0.04410727
Ni       3.65858139       4.92866021       2.01167273        1       1.00000000       0.02128362      -0.01133520       0.05357847
Ni       6.09763564       4.92866021       2.01167273        1       1.00000000       0.00069377       0.02812403       0.04410727
Ni       8.53668990       4.92866021       2.01167273        1       1.00000000      -0.02084049      -0.01203226       0.05522403
Ni       0.01009561       1.41490057       4.05505863        2       1.00000000      -0.01051419      -0.00154707      -0.03236525
Ni       2.43963704       1.40852510       4.06612932        2       1.00000000       0.00112372       0.00064878      -0.07659728
Ni       4.86953094       1.41487876       4.05517347        2       1.00000000       0.00980382      -0.00018206      -0.03158642
Ni       1.21865448       3.50906972       4.05547079        2       1.00000000      -0.00150502       0.01201532      -0.03361220
Ni       3.66008642       3.50969812       4.05517347        2       1.00000000       0.00474424       0.00858139      -0.03158642
Ni       6.09771162       3.52051545       4.02776582        2       1.00000000       0.00278007       0.00160507       0.00913294
Ni       2.43930890       5.63290155       4.02447028        2       1.00000000       0.00118059       0.00068161       0.01104968
Ni       4.88896903       5.63814161       4.05505863        2       1.00000000      -0.00659689      -0.00833202      -0.03236525
Ni       7.30685215       5.63769973       4.05547079        2       1.00000000       0.00965306      -0.00731105      -0.03361220
Ni      -0.01923132      -0.01110321       6.03663893        3       1.00000000       0.00280117       0.00161726      -0.00903338
Ni       2.44186377      -0.03406159       6.20906691        3       1.00000000      -0.00754521       0.04895888      -0.06853202
Ni       4.90008619      -0.01125844       6.03637187        3       1.00000000       0.00577862       0.00197779      -0.00774188
Ni       1.19143368       2.13174685       6.20906691        3       1.00000000       0.03862703      -0.03101378      -0.06853202
Ni       3.69211215       2.13164194       6.20660638        3       1.00000000      -0.03769011      -0.02176039      -0.06265487
Ni       6.10143550       2.12112513       6.03689006        3       1.00000000      -0.01761766      -0.00422156      -0.00895995
Ni       2.44029300       4.24922834       6.03637187        3       1.00000000       0.00460213       0.00401554      -0.00774188
Ni       4.88766599       4.22343558       6.03689006        3       1.00000000      -0.01246481      -0.01314656      -0.00895995
Ni       7.31153286       4.22131547       6.03718237        3       1.00000000       0.00860889       0.00497034      -0.00845044
O        2.44276563       1.41033139       7.32934578        0       0.00000000      -0.00064223      -0.00037079      -0.04965340
