36
Lattice="8.51545404474967 -5.95020126642259e-16 6.045666078066302e-16 4.2577270223748345 7.374599527512166 1.4060493190009737e-15 0.0 0.0 22.098036274269273" Properties=species:S:1:pos:R:3:tags:I:1:initial_magmoms:R:1:forces:R:3 stress="-0.001530318267259606 -2.681236941268032e-17 -2.1701241866862967e-18 -2.681236941268032e-17 -0.0015303182672595419 7.92116330625335e-18 -2.1701241866862967e-18 7.92116330625335e-18 -0.0034392586367780614" energy=-107.77136313094856 pbc="T T T"
Ag      -0.00000000      -0.00000000       0.00000000        0       0.00000000      -0.00000000      -0.00000000      -0.11608669
Ag       2.83848468      -0.00000000       0.00000000        0       0.00000000      -0.00000000      -0.00000000      -0.11608669
Ag       5.67696936      -0.00000000       0.00000000        0       0.00000000       0.00000000      -0.00000000      -0.11608669
Ag       1.41924234       2.45819984       0.00000000        0       0.00000000      -0.00000000       0.00000000      -0.11608669
Ag       4.25772702       2.45819984       0.00000000        0       0.00000000      -0.00000000       0.00000000      -0.11608669
Ag       7.09621170       2.45819984       0.00000000        0       0.00000000       0.00000000      -0.00000000      -0.11608669
Ag       2.83848468       4.91639969       0.00000000        0       0.00000000      -0.00000000       0.00000000      -0.11608669
Ag       5.67696936       4.91639969       0.00000000        0       0.00000000       0.00000000       0.00000000      -0.11608669
Ag       8.51545404       4.91639969       0.00000000        0       0.00000000      -0.00000000       0.00000000      -0.11608669
Ag       1.41924234       0.81939995       2.36351683        1       0.00000000      -0.00000000      -0.00000000       0.09974332
Ag       4.25772702       0.81939995       2.36351683        1       0.00000000      -0.00000000      -0.00000000       0.09974332
Ag       7.09621170       0.81939995       2.36351683        1       0.00000000       0.00000000      -0.00000000       0.09974332
Ag       2.83848468       3.27759979       2.36351683        1       0.00000000       0.00000000      -0.00000000       0.09974332
Ag       5.67696936       3.27759979       2.36351683        1       0.00000000      -0.00000000       0.00000000       0.09974332
Ag       8.51545404       3.27759979       2.36351683        1       0.00000000      -0.00000000       0.00000000       0.09974332
Ag       4.25772702       5.73579963       2.36351683        1       0.00000000      -0.00000000       0.00000000       0.09974332
Ag       7.09621170       5.73579963       2.36351683        1       0.00000000       0.00000000       0.00000000       0.09974332
Ag       9.93469639       5.73579963       2.36351683        1       0.00000000       0.00000000       0.00000000       0.09974332
Ag      -0.00000000       1.63879990       4.73132572        2       0.00000000      -0.00000000      -0.00000000      -0.07879593
Ag       2.83848468       1.63879990       4.73132572        2       0.00000000      -0.00000000      -0.00000000      -0.07879593
Ag       5.67696936       1.63879990       4.73132572        2       0.00000000       0.00000000      -0.00000000      -0.07879593
Ag       1.41924234       4.09699974       4.73132572        2       0.00000000      -0.00000000       0.00000000      -0.07879593
Ag       4.25772702       4.09699974       4.73132572        2       0.00000000      -0.00000000      -0.00000000      -0.07879593
Ag       7.09621170       4.09699974       4.73132572        2       0.00000000       0.00000000       0.00000000      -0.07879593
Ag       2.83848468       6.55519958       4.73132572        2       0.00000000      -0.00000000       0.00000000      -0.07879593
Ag       5.67696936       6.55519958       4.73132572        2       0.00000000       0.00000000       0.00000000      -0.07879593
Ag       8.51545404       6.55519958       4.73132572        2       0.00000000      -0.00000000       0.00000000      -0.07879593
Ag      -0.00000000      -0.00000000       7.10144779        3       0.00000000      -0.00000000      -0.00000000       0.09513930
Ag       2.83848468      -0.00000000       7.10144779        3       0.00000000       0.00000000      -0.00000000       0.09513930
Ag       5.67696936      -0.00000000       7.10144779        3       0.00000000       0.00000000      -0.00000000       0.09513930
Ag       1.41924234       2.45819984       7.10144779        3       0.00000000      -0.00000000       0.00000000       0.09513930
Ag       4.25772702       2.45819984       7.10144779        3       0.00000000      -0.00000000       0.00000000       0.09513930
Ag       7.09621170       2.45819984       7.10144779        3       0.00000000       0.00000000      -0.00000000       0.09513930
Ag       2.83848468       4.91639969       7.10144779        3       0.00000000      -0.00000000       0.00000000       0.09513930
Ag       5.67696936       4.91639969       7.10144779        3       0.00000000       0.00000000       0.00000000       0.09513930
Ag       8.51545404       4.91639969       7.10144779        3       0.00000000       0.00000000       0.00000000       0.09513930
