37
Lattice="8.143282129841092 -3.9719248023175796e-16 4.2043796269772325e-15 4.071641064920545 7.05228919462624 1.1826840171501552e-15 0.0 0.0 21.817084989057776" Properties=species:S:1:pos:R:3:tags:I:1:initial_magmoms:R:1:forces:R:3 stress="-0.0041020619537855876 1.6658165921481474e-06 1.6839283627240807e-06 1.6658165921481474e-06 -0.0031607471665487785 -0.0006410734782391287 1.6839283627240807e-06 -0.0006410734782391287 -0.002047119164563115" energy=-202.84207835676352 pbc="T T T"
Pd      -0.00000000       0.00000000       0.00000000        0       0.00000000      -0.00137871       0.00081826      -0.11453812
Pd       2.71442738      -0.00000000       0.00000000        0       0.00000000       0.00135819       0.00082518      -0.11450166
Pd       5.42885475      -0.00000000       0.00000000        0       0.00000000      -0.00000959       0.00030966      -0.11100346
Pd       1.35721369       2.35076306       0.00000000        0       0.00000000      -0.00000636       0.00208838      -0.11274501
Pd       4.07164106       2.35076306       0.00000000        0       0.00000000       0.00003589       0.00111102      -0.11185301
Pd       6.78606844       2.35076306       0.00000000        0       0.00000000      -0.00006178       0.00111197      -0.11185835
Pd       2.71442738       4.70152613       0.00000000        0       0.00000000      -0.00052286       0.00181175      -0.11064469
Pd       5.42885475       4.70152613       0.00000000        0       0.00000000      -0.00001245       0.00082421      -0.11313315
Pd       8.14328213       4.70152613       0.00000000        0       0.00000000       0.00050685       0.00181649      -0.11061967
Pd       1.35721369       0.78358769       2.26968927        1       0.00000000       0.00041462       0.00667390       0.09775003
Pd       4.07164106       0.78358769       2.26968927        1       0.00000000      -0.01155544      -0.03732645       0.12498443
Pd       6.78606844       0.78358769       2.26968927        1       0.00000000       0.01154018      -0.03724155       0.12433241
Pd       2.71442738       3.13435075       2.26968927        1       0.00000000      -0.03256585      -0.01127638       0.11986895
Pd       5.42885475       3.13435075       2.26968927        1       0.00000000       0.00014319      -0.01794659       0.04254971
Pd       8.14328213       3.13435075       2.26968927        1       0.00000000       0.03287480      -0.01099511       0.11931721
Pd       4.07164106       5.48511382       2.26968927        1       0.00000000      -0.02906862       0.00116468       0.09733702
Pd       6.78606844       5.48511382       2.26968927        1       0.00000000       0.02959428       0.00127720       0.09742475
Pd       9.50049582       5.48511382       2.26968927        1       0.00000000      -0.00015694      -0.02702788       0.09315900
Pd       0.00168317       1.54624210       4.53729960        2       0.00000000       0.00464397      -0.00741338      -0.00936183
Pd       2.71310487       1.54621891       4.53759040        2       0.00000000      -0.00489819      -0.00736081      -0.00986790
Pd       5.42899998       1.54562523       4.51788892        2       0.00000000      -0.00003574      -0.01444337      -0.00172539
Pd       1.35737228       3.88192727       4.55036321        2       0.00000000      -0.00007239       0.00757282       0.00807703
Pd       4.07058703       3.89801166       4.51508811        2       0.00000000      -0.00171836      -0.01871260       0.00715189
Pd       6.78750710       3.89803148       4.51506540        2       0.00000000       0.00139697      -0.01877843       0.00716006
Pd       2.71992328       6.24857375       4.54506533        2       0.00000000       0.00610302      -0.00216133       0.00683036
Pd       5.42907075       6.25074819       4.52209095        2       0.00000000      -0.00011039      -0.02316214       0.02902507
Pd       8.13805102       6.24859796       4.54530681        2       0.00000000      -0.00615084      -0.00217866       0.00644862
Pd      -0.04256275      -0.08156309       6.88019548        3       0.00000000       0.00155712       0.02334947       0.02379184
Pd       2.75744948      -0.08144869       6.88102326        3       0.00000000      -0.00176077       0.02286899       0.02239751
Pd       5.42910294      -0.05002045       6.80328481        3       0.00000000      -0.00030810       0.00403366       0.01664588
Pd       1.35743256       2.33224014       6.93183046        3       0.00000000      -0.00002813       0.06467361      -0.07145987
Pd       4.08213572       2.30590777       6.79613838        3       0.00000000       0.00187618       0.01153549       0.00430953
Pd       6.77612451       2.30586326       6.79589403        3       0.00000000      -0.00206156       0.01174455       0.00487974
Pd       2.71243013       4.64399695       6.80648753        3       0.00000000      -0.00296937       0.00682367       0.00191509
Pd       5.42915689       4.63701757       6.78608547        3       0.00000000      -0.00021730       0.00547174       0.02091921
Pd       8.14575195       4.64403955       6.80669468        3       0.00000000       0.00290966       0.00686695       0.00140997
O        1.35698815       0.68990768       8.07009483        0       0.00000000       0.00071483       0.05125103       0.02562681
