37
Lattice="8.143282129841092 -3.9719248023175796e-16 4.2043796269772325e-15 4.071641064920545 7.05228919462624 1.1826840171501552e-15 0.0 0.0 21.817084989057776" Properties=species:S:1:pos:R:3:tags:I:1:initial_magmoms:R:1:forces:R:3 stress="-0.002224043593328272 3.6393842058357236e-17 5.498843575368684e-17 3.6393842058357236e-17 -0.002224043593327934 -1.134462900746978e-16 5.498843575368684e-17 -1.134462900746978e-16 -0.0008160318621797651" energy=-201.56684979116307 pbc="T T T"
Pd      -0.00000000       0.00000000       0.00000000        0       0.00000000      -0.00000000       0.00000000      -0.11007970
Pd       2.71442738      -0.00000000       0.00000000        0       0.00000000       0.00079601      -0.00009633      -0.11012755
Pd       5.42885475      -0.00000000       0.00000000        0       0.00000000      -0.00079601      -0.00009633      -0.11012755
Pd       1.35721369       2.35076306       0.00000000        0       0.00000000       0.00031458       0.00073753      -0.11012755
Pd       4.07164106       2.35076306       0.00000000        0       0.00000000      -0.00000000      -0.00000000      -0.10405511
Pd       6.78606844       2.35076306       0.00000000        0       0.00000000      -0.00031458       0.00073753      -0.11012755
Pd       2.71442738       4.70152613       0.00000000        0       0.00000000      -0.00048143      -0.00064120      -0.11012755
Pd       5.42885475       4.70152613       0.00000000        0       0.00000000       0.00048143      -0.00064120      -0.11012755
Pd       8.14328213       4.70152613       0.00000000        0       0.00000000       0.00000000      -0.00000000      -0.11306306
Pd       1.35721369       0.78358769       2.26968927        1       0.00000000      -0.01253636      -0.00723787       0.15161831
Pd       4.07164106       0.78358769       2.26968927        1       0.00000000       0.00000000      -0.00363275       0.12091087
Pd       6.78606844       0.78358769       2.26968927        1       0.00000000       0.01253636      -0.00723787       0.15161831
Pd       2.71442738       3.13435075       2.26968927        1       0.00000000      -0.00314605       0.00181637       0.12091087
Pd       5.42885475       3.13435075       2.26968927        1       0.00000000       0.00314605       0.00181637       0.12091087
Pd       8.14328213       3.13435075       2.26968927        1       0.00000000       0.00000000       0.02207404       0.12537652
Pd       4.07164106       5.48511382       2.26968927        1       0.00000000       0.00000000       0.01447574       0.15161831
Pd       6.78606844       5.48511382       2.26968927        1       0.00000000       0.01911668      -0.01103702       0.12537652
Pd       9.50049582       5.48511382       2.26968927        1       0.00000000      -0.01911668      -0.01103702       0.12537652
Pd      -0.00000000       1.56150084       4.54079451        2       0.00000000      -0.00000000      -0.01879757       0.04256404
Pd       2.71398675       1.56692098       4.53387116        2       0.00000000      -0.00239926      -0.00138521      -0.02381749
Pd       5.42929538       1.56692098       4.53387116        2       0.00000000       0.00239926      -0.00138521      -0.02381749
Pd       1.35854280       3.91717108       4.53576683        2       0.00000000       0.00083277      -0.00048080      -0.01657141
Pd       4.07164106       3.91844723       4.53387116        2       0.00000000       0.00000000       0.00277042      -0.02381749
Pd       6.78473933       3.91717108       4.53576683        2       0.00000000      -0.00083277      -0.00048080      -0.01657141
Pd       2.71934167       6.27153878       4.54079451        2       0.00000000       0.01627917       0.00939878       0.04256404
Pd       5.42394046       6.27153878       4.54079451        2       0.00000000      -0.01627917       0.00939878       0.04256404
Pd       8.14328213       6.27023624       4.53576683        2       0.00000000      -0.00000000       0.00096160      -0.01657141
Pd      -0.00000000       0.00000000       6.89710326        3       0.00000000      -0.00000000      -0.00000000       0.02421989
Pd       2.71867133       0.00046046       6.82346599        3       0.00000000       0.01381968       0.00305779      -0.01133031
Pd       5.42461080       0.00046046       6.82346599        3       0.00000000      -0.01381968       0.00305779      -0.01133031
Pd       1.35973443       2.35420821       6.82346599        3       0.00000000       0.00955796       0.01043930      -0.01133031
Pd       4.07164106       2.35076306       6.81663619        3       0.00000000       0.00000000       0.00000000      -0.04542786
Pd       6.78354770       2.35420821       6.82346599        3       0.00000000      -0.00955796       0.01043930      -0.01133031
Pd       2.71270417       4.69762053       6.82346599        3       0.00000000      -0.00426172      -0.01349709      -0.01133031
Pd       5.43057796       4.69762053       6.82346599        3       0.00000000       0.00426172      -0.01349709      -0.01133031
Pd       8.14328213       4.70152613       6.81985025        3       0.00000000       0.00000000       0.00000000      -0.02559974
O        0.00000000       0.00000000       8.73908218        0       0.00000000      -0.00000000       0.00000000      -0.09748981
