37
Lattice="8.143282129841092 -3.9719248023175796e-16 4.2043796269772325e-15 4.071641064920545 7.05228919462624 1.1826840171501552e-15 0.0 0.0 21.817084989057776" Properties=species:S:1:pos:R:3:tags:I:1:initial_magmoms:R:1:forces:R:3 stress="-0.002609194066297022 -2.024544419087303e-06 1.6486464317810364e-05 -2.024544419087303e-06 -0.0026068563237661053 9.518464611776374e-06 1.6486464317810364e-05 9.518464611776374e-06 -0.0005636991984895295" energy=-202.79608616802716 pbc="T T T"
Pd      -0.00000000       0.00000000       0.00000000        0       0.00000000       0.00042303       0.00024424      -0.11497453
Pd       2.71442738      -0.00000000       0.00000000        0       0.00000000      -0.00001516      -0.00087872      -0.11715202
Pd       5.42885475      -0.00000000       0.00000000        0       0.00000000      -0.00045069       0.00025208      -0.11496003
Pd       1.35721369       2.35076306       0.00000000        0       0.00000000      -0.00076857       0.00042623      -0.11715202
Pd       4.07164106       2.35076306       0.00000000        0       0.00000000       0.00075176       0.00043403      -0.11714971
Pd       6.78606844       2.35076306       0.00000000        0       0.00000000      -0.00002263      -0.00168921      -0.11253277
Pd       2.71442738       4.70152613       0.00000000        0       0.00000000      -0.00000703      -0.00051635      -0.11496003
Pd       5.42885475       4.70152613       0.00000000        0       0.00000000      -0.00147422       0.00082501      -0.11253277
Pd       8.14328213       4.70152613       0.00000000        0       0.00000000       0.00145204       0.00083834      -0.11252015
Pd       1.35721369       0.78358769       2.26968927        1       0.00000000       0.02092643       0.01208188       0.20496750
Pd       4.07164106       0.78358769       2.26968927        1       0.00000000      -0.02042268       0.01197004       0.20547939
Pd       6.78606844       0.78358769       2.26968927        1       0.00000000       0.00016657      -0.00352944       0.11394378
Pd       2.71442738       3.13435075       2.26968927        1       0.00000000       0.00015502      -0.02367158       0.20547939
Pd       5.42885475       3.13435075       2.26968927        1       0.00000000      -0.01333071      -0.00769649       0.12606293
Pd       8.14328213       3.13435075       2.26968927        1       0.00000000       0.01356197      -0.00764007       0.12616064
Pd       4.07164106       5.48511382       2.26968927        1       0.00000000      -0.00297330       0.00190898       0.11394378
Pd       6.78606844       5.48511382       2.26968927        1       0.00000000       0.00016449       0.01556504       0.12616064
Pd       9.50049582       5.48511382       2.26968927        1       0.00000000       0.00308529       0.00178129       0.11414488
Pd       0.00529762       1.57226900       4.54252016        2       0.00000000       0.00367913       0.00323162       0.01293783
Pd       2.71470608       1.56733628       4.56772941        2       0.00000000      -0.00062685      -0.00036191      -0.05302992
Pd       5.42412767       1.57238287       4.54259366        2       0.00000000      -0.00459819       0.00189137       0.01075558
Pd       1.35553384       3.91118268       4.54262112        2       0.00000000       0.00052397      -0.00483681       0.01196724
Pd       4.07378734       3.91124092       4.54259366        2       0.00000000      -0.00066112      -0.00492783       0.01075558
Pd       6.78624203       3.91803866       4.52488464        2       0.00000000       0.00126123       0.00072817       0.00293867
Pd       2.71457785       6.26878838       4.52487328        2       0.00000000       0.00057171       0.00033007       0.00197107
Pd       5.43591477       6.27074257       4.54252016        2       0.00000000       0.00463823       0.00157041       0.01293783
Pd       8.13659154       6.27062459       4.54262112        2       0.00000000      -0.00392682       0.00287218       0.01196724
Pd      -0.00794735      -0.00458840       6.81425914        3       0.00000000      -0.00380407      -0.00219628      -0.02361432
Pd       2.71496694      -0.03162519       6.94016890        3       0.00000000      -0.00011357      -0.01129129      -0.03325461
Pd       5.43830485      -0.00449112       6.81412412        3       0.00000000       0.00153291      -0.00394419      -0.02286574
Pd       1.33009525       2.36704294       6.94016890        3       0.00000000      -0.00983533       0.00554729      -0.03325461
Pd       4.09972532       2.36697752       6.93976860        3       0.00000000       0.01769016       0.01021342      -0.03987637
Pd       6.78619555       2.35803218       6.80769822        3       0.00000000       0.00498113      -0.00127859      -0.02088406
Pd       2.71526300       4.71195572       6.81412412        3       0.00000000      -0.00264932       0.00329963      -0.02286574
Pd       5.43521355       4.69800165       6.80769822        3       0.00000000       0.00138328       0.00495308      -0.02088406
Pd       8.13803159       4.69849473       6.80780832        3       0.00000000      -0.00051956      -0.00029997      -0.02140553
O        2.71664375       1.56845500       8.14302453        0       0.00000000      -0.01074852      -0.00620566      -0.08670500
