37
Lattice="8.143282129841092 -3.9719248023175796e-16 4.2043796269772325e-15 4.071641064920545 7.05228919462624 1.1826840171501552e-15 0.0 0.0 21.817084989057776" Properties=species:S:1:pos:R:3:tags:I:1:initial_magmoms:R:1:forces:R:3 stress="-0.002873127517555748 5.14072181291517e-06 7.893394214802007e-06 5.14072181291517e-06 -0.0028790635118004365 4.557253274647559e-06 7.893394214802007e-06 4.557253274647559e-06 -0.0004555732351131381" energy=-202.8449992238002 pbc="T T T"
Pd      -0.00000000       0.00000000       0.00000000        0       0.00000000      -0.00118557      -0.00068449      -0.11538381
Pd       2.71442738      -0.00000000       0.00000000        0       0.00000000       0.00118661      -0.00069670      -0.11539280
Pd       5.42885475      -0.00000000       0.00000000        0       0.00000000      -0.00001611      -0.00099985      -0.11395341
Pd       1.35721369       2.35076306       0.00000000        0       0.00000000      -0.00001005       0.00137599      -0.11539280
Pd       4.07164106       2.35076306       0.00000000        0       0.00000000      -0.00003507      -0.00002025      -0.11443969
Pd       6.78606844       2.35076306       0.00000000        0       0.00000000       0.00002897      -0.00002273      -0.11442081
Pd       2.71442738       4.70152613       0.00000000        0       0.00000000      -0.00087395       0.00048597      -0.11395341
Pd       5.42885475       4.70152613       0.00000000        0       0.00000000      -0.00000520       0.00003645      -0.11442081
Pd       8.14328213       4.70152613       0.00000000        0       0.00000000       0.00086135       0.00049730      -0.11394449
Pd       1.35721369       0.78358769       2.26968927        1       0.00000000      -0.00015674      -0.00009050       0.16667110
Pd       4.07164106       0.78358769       2.26968927        1       0.00000000      -0.01846729      -0.02700940       0.16277153
Pd       6.78606844       0.78358769       2.26968927        1       0.00000000       0.01871486      -0.02678386       0.16285660
Pd       2.71442738       3.13435075       2.26968927        1       0.00000000      -0.03262447      -0.00248844       0.16277153
Pd       5.42885475       3.13435075       2.26968927        1       0.00000000       0.00011170       0.00006449       0.07035964
Pd       8.14328213       3.13435075       2.26968927        1       0.00000000       0.03272693      -0.00262032       0.16303661
Pd       4.07164106       5.48511382       2.26968927        1       0.00000000      -0.01383808       0.02959947       0.16285660
Pd       6.78606844       5.48511382       2.26968927        1       0.00000000       0.01409420       0.02965251       0.16303661
Pd       9.50049582       5.48511382       2.26968927        1       0.00000000       0.00005087       0.00002937       0.14784028
Pd       0.00230679       1.56599203       4.54907620        2       0.00000000       0.00499059      -0.00334026      -0.01683287
Pd       2.71228151       1.56593646       4.54888802        2       0.00000000      -0.00455680      -0.00263087      -0.01585688
Pd       5.42892232       1.56605030       4.52187527        2       0.00000000       0.00056177       0.00066893       0.01055742
Pd       1.35733380       3.90866666       4.55781553        2       0.00000000      -0.00007540      -0.00526613       0.01244223
Pd       4.07070050       3.91855949       4.52187527        2       0.00000000       0.00086019       0.00015204       0.01055742
Pd       6.78719608       3.91858948       4.52189698        2       0.00000000      -0.00047879      -0.00027643       0.01011363
Pd       2.72267050       6.27346068       4.55769503        2       0.00000000       0.00429639       0.00248052       0.01413738
Pd       5.42898334       6.27129092       4.54907620        2       0.00000000      -0.00039746       0.00599211      -0.01683287
Pd       8.13531259       6.27344142       4.55781553        2       0.00000000      -0.00459830       0.00256777       0.01244223
Pd      -0.03696318      -0.02134070       6.93487774        3       0.00000000      -0.00640348      -0.00369705      -0.04625987
Pd       2.75197456      -0.02134418       6.93465284        3       0.00000000       0.00935113      -0.00537827      -0.04912709
Pd       5.42894371       0.00181062       6.81888376        3       0.00000000       0.00255495      -0.00464566      -0.02175453
Pd       1.35750268       2.39395197       6.93465284        3       0.00000000       0.00001785       0.01078745      -0.04912709
Pd       4.08342538       2.35756674       6.80713619        3       0.00000000      -0.00562600      -0.00324817      -0.01762868
Pd       6.77499851       2.35760648       6.80715849        3       0.00000000       0.00454478      -0.00398855      -0.01745947
Pd       2.71603989       4.70069786       6.81888376        3       0.00000000      -0.00274578       0.00453548      -0.02175453
Pd       5.42924636       4.68851758       6.80715849        3       0.00000000      -0.00118179       0.00593017      -0.01745947
Pd       8.14222991       4.70091863       6.81884694        3       0.00000000       0.00325624       0.00187999      -0.02120897
O        1.35829353       0.78421114       8.11897141        0       0.00000000      -0.00493305      -0.00284810      -0.08984647
