38
Lattice="7.31716277299497 -1.5312158836541236e-14 3.502625384595088e-15 3.6585813864974996 6.336848845039428 1.6265961235805369e-15 0.0 0.0 21.04428422323305" Properties=species:S:1:pos:R:3:tags:I:1:initial_magmoms:R:1:forces:R:3 stress="-0.000584580123883776 2.3490334104265376e-05 7.173275985684033e-05 2.3490334104265376e-05 -0.0006117044253202419 4.1414928212949726e-05 7.173275985684033e-05 4.1414928212949726e-05 -0.0010761214721374023" energy=-209.6166879676651 pbc="T T T"
Ni       0.00000000      -0.00000000       0.00000000        0       1.00000000       0.00384282       0.00221865      -0.01954897
Ni       2.43905426      -0.00000000       0.00000000        0       1.00000000       0.00003066      -0.00174845      -0.03097862
Ni       4.87810852      -0.00000000       0.00000000        0       1.00000000      -0.00371436       0.00213055      -0.01926111
Ni       1.21952713       2.11228295       0.00000000        0       1.00000000      -0.00149887       0.00090077      -0.03097862
Ni       3.65858139       2.11228295       0.00000000        0       1.00000000       0.00152784       0.00088210      -0.03122209
Ni       6.09763564       2.11228295       0.00000000        0       1.00000000       0.00018287       0.00070444      -0.02268662
Ni       2.43905426       4.22456590       0.00000000        0       1.00000000      -0.00001207      -0.00428201      -0.01926111
Ni       4.87810852       4.22456590       0.00000000        0       1.00000000       0.00070149      -0.00019385      -0.02268662
Ni       7.31716277       4.22456590       0.00000000        0       1.00000000      -0.00046194      -0.00026670      -0.02249084
Ni       1.21952713       0.70409432       2.01167273        1       1.00000000      -0.03051572      -0.01761826       0.02728208
Ni       3.65858139       0.70409432       2.01167273        1       1.00000000       0.03048875      -0.01805329       0.02599145
Ni       6.09763564       0.70409432       2.01167273        1       1.00000000       0.00325354       0.01881714      -0.01011272
Ni       2.43905426       2.81637726       2.01167273        1       1.00000000      -0.00039023       0.03543068       0.02599145
Ni       4.87810852       2.81637726       2.01167273        1       1.00000000       0.00592728       0.00342212       0.01877819
Ni       7.31716277       2.81637726       2.01167273        1       1.00000000      -0.00039031       0.00237385       0.02359051
Ni       3.65858139       4.92866021       2.01167273        1       1.00000000       0.01792289      -0.00659092      -0.01011272
Ni       6.09763564       4.92866021       2.01167273        1       1.00000000       0.00186066      -0.00152494       0.02359051
Ni       8.53668990       4.92866021       2.01167273        1       1.00000000      -0.01534901      -0.00886175      -0.00521221
Ni       0.00827539       1.41424774       4.04693006        2       1.00000000      -0.00534064      -0.00231805      -0.01865936
Ni       2.43953046       1.40846357       4.01798071        2       1.00000000       0.00026103       0.00015071       0.09253743
Ni       4.87238601       1.41409598       4.04522234        2       1.00000000       0.00483764      -0.00332164      -0.01854292
Ni       1.21984045       3.51231772       4.04705585        2       1.00000000      -0.00044220       0.00533629      -0.01832056
Ni       3.66083605       3.51256208       4.04522234        2       1.00000000      -0.00045781       0.00585034      -0.01854292
Ni       6.09923348       3.52139409       4.03236080        2       1.00000000      -0.00166615      -0.00096195      -0.02919598
Ni       2.44027570       5.63345973       4.01616936        2       1.00000000       0.00112841       0.00065149      -0.00893246
Ni       4.88749355       5.63689167       4.04693006        2       1.00000000      -0.00467781      -0.00346611      -0.01865936
Ni       7.31025798       5.63710281       4.04705585        2       1.00000000       0.00440026      -0.00305111      -0.01832056
Ni      -0.02029239      -0.01171582       6.02904716        3       1.00000000      -0.00504779      -0.00291434      -0.00914219
Ni       2.44060923      -0.05420603       6.12250216        3       1.00000000       0.00481989       0.03327791       0.04536722
Ni       4.90531253      -0.01230187       6.02863761        3       1.00000000      -0.01485102       0.00105923      -0.00985575
Ni       1.17336081       2.14073261       6.12250216        3       1.00000000       0.03122946      -0.01246481       0.04536722
Ni       3.70614912       2.13974619       6.11365319        3       1.00000000      -0.02301415      -0.01328723       0.06402997
Ni       6.09802116       2.11746052       6.03563158        3       1.00000000       0.01545230      -0.00052307      -0.00836724
Ni       2.44200253       4.25427620       6.02863761        3       1.00000000      -0.00650819      -0.01339097      -0.00985575
Ni       4.88278518       4.22231098       6.03563158        3       1.00000000       0.00727316       0.01364361      -0.00836724
Ni       7.31638281       4.22411558       6.03662599        3       1.00000000      -0.00691605      -0.00399298      -0.01111636
O        2.44635200       1.41240199       7.38500801        0       0.00000000      -0.01235893      -0.00713543      -0.00899573
H        2.45563664       1.41776248       8.35851029        0       0.00000000      -0.00152770      -0.00088202       0.06690059
