36
Lattice="8.143282129841092 -3.9719248023175796e-16 4.2043796269772325e-15 4.071641064920545 7.05228919462624 1.1826840171501552e-15 0.0 0.0 21.817084989057776" Properties=species:S:1:pos:R:3:tags:I:1:initial_magmoms:R:1:forces:R:3 stress="-0.002227242502418852 4.599034186486199e-17 7.116637074748457e-17 4.599034186486199e-17 -0.0022272425024185433 -5.684840221419496e-17 7.116637074748457e-17 -5.684840221419496e-17 -0.001872851980821216" energy=-196.9211906698391 pbc="T T T"
Pd      -0.00000000       0.00000000       0.00000000        0       0.00000000      -0.00000000       0.00000000      -0.11110223
Pd       2.71442738      -0.00000000       0.00000000        0       0.00000000      -0.00000000      -0.00000000      -0.11110223
Pd       5.42885475      -0.00000000       0.00000000        0       0.00000000       0.00000000      -0.00000000      -0.11110223
Pd       1.35721369       2.35076306       0.00000000        0       0.00000000      -0.00000000       0.00000000      -0.11110223
Pd       4.07164106       2.35076306       0.00000000        0       0.00000000      -0.00000000      -0.00000000      -0.11110223
Pd       6.78606844       2.35076306       0.00000000        0       0.00000000       0.00000000      -0.00000000      -0.11110223
Pd       2.71442738       4.70152613       0.00000000        0       0.00000000      -0.00000000       0.00000000      -0.11110223
Pd       5.42885475       4.70152613       0.00000000        0       0.00000000       0.00000000       0.00000000      -0.11110223
Pd       8.14328213       4.70152613       0.00000000        0       0.00000000       0.00000000      -0.00000000      -0.11110223
Pd       1.35721369       0.78358769       2.26968927        1       0.00000000      -0.00000000       0.00000000       0.13537007
Pd       4.07164106       0.78358769       2.26968927        1       0.00000000       0.00000000      -0.00000000       0.13537007
Pd       6.78606844       0.78358769       2.26968927        1       0.00000000       0.00000000      -0.00000000       0.13537007
Pd       2.71442738       3.13435075       2.26968927        1       0.00000000      -0.00000000      -0.00000000       0.13537007
Pd       5.42885475       3.13435075       2.26968927        1       0.00000000      -0.00000000      -0.00000000       0.13537007
Pd       8.14328213       3.13435075       2.26968927        1       0.00000000       0.00000000      -0.00000000       0.13537007
Pd       4.07164106       5.48511382       2.26968927        1       0.00000000       0.00000000       0.00000000       0.13537007
Pd       6.78606844       5.48511382       2.26968927        1       0.00000000       0.00000000       0.00000000       0.13537007
Pd       9.50049582       5.48511382       2.26968927        1       0.00000000       0.00000000      -0.00000000       0.13537007
Pd      -0.00000000       1.56717538       4.53771908        2       0.00000000      -0.00000000      -0.00000000      -0.05604155
Pd       2.71442738       1.56717538       4.53771908        2       0.00000000      -0.00000000      -0.00000000      -0.05604155
Pd       5.42885475       1.56717538       4.53771908        2       0.00000000      -0.00000000       0.00000000      -0.05604155
Pd       1.35721369       3.91793844       4.53771908        2       0.00000000      -0.00000000      -0.00000000      -0.05604155
Pd       4.07164106       3.91793844       4.53771908        2       0.00000000       0.00000000      -0.00000000      -0.05604155
Pd       6.78606844       3.91793844       4.53771908        2       0.00000000       0.00000000       0.00000000      -0.05604155
Pd       2.71442738       6.26870151       4.53771908        2       0.00000000      -0.00000000      -0.00000000      -0.05604155
Pd       5.42885475       6.26870151       4.53771908        2       0.00000000       0.00000000       0.00000000      -0.05604155
Pd       8.14328213       6.26870151       4.53771908        2       0.00000000      -0.00000000      -0.00000000      -0.05604155
Pd      -0.00000000       0.00000000       6.82307426        3       0.00000000      -0.00000000      -0.00000000       0.03177370
Pd       2.71442738      -0.00000000       6.82307426        3       0.00000000      -0.00000000       0.00000000       0.03177370
Pd       5.42885475      -0.00000000       6.82307426        3       0.00000000      -0.00000000      -0.00000000       0.03177370
Pd       1.35721369       2.35076306       6.82307426        3       0.00000000      -0.00000000       0.00000000       0.03177370
Pd       4.07164106       2.35076306       6.82307426        3       0.00000000       0.00000000       0.00000000       0.03177370
Pd       6.78606844       2.35076306       6.82307426        3       0.00000000       0.00000000      -0.00000000       0.03177370
Pd       2.71442738       4.70152613       6.82307426        3       0.00000000      -0.00000000       0.00000000       0.03177370
Pd       5.42885475       4.70152613       6.82307426        3       0.00000000       0.00000000       0.00000000       0.03177370
Pd       8.14328213       4.70152613       6.82307426        3       0.00000000       0.00000000       0.00000000       0.03177370
