38
Lattice="7.31716277299497 -1.5312158836541236e-14 3.502625384595088e-15 3.6585813864974996 6.336848845039428 1.6265961235805369e-15 0.0 0.0 21.04428422323305" Properties=species:S:1:pos:R:3:tags:I:1:initial_magmoms:R:1:forces:R:3 stress="-0.00046268791959754377 3.1094575496402143e-06 1.1795250076110534e-05 3.1094575496402143e-06 0.0002436386279291644 -0.0008510994551405621 1.1795250076110534e-05 -0.0008510994551405621 -0.0002570879462564903" energy=-209.59213438067283 pbc="T T T"
Ni       0.00000000      -0.00000000       0.00000000        0       1.00000000      -0.00036369      -0.00014347      -0.03097526
Ni       2.43905426      -0.00000000       0.00000000        0       1.00000000       0.00038455      -0.00015090      -0.03100112
Ni       4.87810852      -0.00000000       0.00000000        0       1.00000000       0.00001447      -0.00170244      -0.01183820
Ni       1.21952713       2.11228295       0.00000000        0       1.00000000       0.00000421      -0.00076357      -0.02889519
Ni       3.65858139       2.11228295       0.00000000        0       1.00000000       0.00075754      -0.00081727      -0.02744837
Ni       6.09763564       2.11228295       0.00000000        0       1.00000000      -0.00072684      -0.00081645      -0.02743668
Ni       2.43905426       4.22456590       0.00000000        0       1.00000000      -0.00138201      -0.00019389      -0.01334576
Ni       4.87810852       4.22456590       0.00000000        0       1.00000000       0.00001565      -0.00184032      -0.02909278
Ni       7.31716277       4.22456590       0.00000000        0       1.00000000       0.00139837      -0.00020083      -0.01332445
Ni       1.21952713       0.70409432       2.01167273        1       1.00000000       0.00019732      -0.00362670       0.05640592
Ni       3.65858139       0.70409432       2.01167273        1       1.00000000      -0.01423303      -0.04471663       0.03242076
Ni       6.09763564       0.70409432       2.01167273        1       1.00000000       0.01482313      -0.04476362       0.03255238
Ni       2.43905426       2.81637726       2.01167273        1       1.00000000      -0.03826353      -0.00657133       0.03013834
Ni       4.87810852       2.81637726       2.01167273        1       1.00000000       0.00026107      -0.01628999      -0.04205213
Ni       7.31716277       2.81637726       2.01167273        1       1.00000000       0.03874140      -0.00675215       0.03030276
Ni       3.65858139       4.92866021       2.01167273        1       1.00000000      -0.03013431       0.00558321       0.01424635
Ni       6.09763564       4.92866021       2.01167273        1       1.00000000       0.03044752       0.00553569       0.01428907
Ni       8.53668990       4.92866021       2.01167273        1       1.00000000       0.00034824      -0.02838000       0.07171830
Ni       0.00281628       1.39465852       4.04351453        2       1.00000000       0.00275234       0.00038383      -0.00127133
Ni       2.43665630       1.39470431       4.04343189        2       1.00000000      -0.00291826       0.00033052      -0.00143683
Ni       4.87830621       1.39300275       4.02615203        2       1.00000000      -0.00009126      -0.00072322       0.00063724
Ni       1.21972653       3.48977238       4.06104086        2       1.00000000      -0.00001358       0.00640712      -0.00008744
Ni       3.65606188       3.51011504       4.02547154        2       1.00000000      -0.00148691      -0.00292785      -0.00066086
Ni       6.10054595       3.51010087       4.02549179        2       1.00000000       0.00142205      -0.00293591      -0.00074293
Ni       2.44942828       5.62478922       4.05477100        2       1.00000000       0.00190243       0.00302359      -0.00108608
Ni       4.87827049       5.62301972       4.03400801        2       1.00000000       0.00004392      -0.00500786       0.00578972
Ni       7.30719781       5.62477121       4.05469086        2       1.00000000      -0.00167170       0.00294107      -0.00118383
Ni      -0.04636608      -0.05881793       6.12300065        3       1.00000000      -0.00289244       0.00845078       0.00259546
Ni       2.48625023      -0.05872832       6.12247058        3       1.00000000       0.00254984       0.00848540       0.00263827
Ni       4.87852770      -0.02316241       6.03876268        3       1.00000000      -0.00000774       0.00083093       0.00132713
Ni       1.22003043       2.13968404       6.15966463        3       1.00000000      -0.00018449       0.00019597      -0.01228031
Ni       3.67962931       2.09875153       6.02303798        3       1.00000000       0.00044067       0.00272844      -0.00040277
Ni       6.07747357       2.09871753       6.02305399        3       1.00000000      -0.00080219       0.00269829      -0.00038927
Ni       2.43850502       4.19353737       6.04242856        3       1.00000000       0.00106776       0.00446065      -0.00098937
Ni       4.87849921       4.17047100       6.01972616        3       1.00000000      -0.00008783       0.00366694       0.00021875
Ni       7.31849353       4.19350225       6.04242725        3       1.00000000      -0.00129866       0.00437571      -0.00094185
O        1.22052216       0.59963210       7.41439808        0       0.00000000      -0.00020381       0.02678717      -0.03215152
H        1.22326528       0.35298455       8.35813499        0       0.00000000      -0.00081018       0.08243908       0.01375389
