38
Lattice="7.31716277299497 -1.5312158836541236e-14 3.502625384595088e-15 3.6585813864974996 6.336848845039428 1.6265961235805369e-15 0.0 0.0 21.04428422323305" Properties=species:S:1:pos:R:3:tags:I:1:initial_magmoms:R:1:forces:R:3 stress="0.0015209479473696982 1.528375030961643e-16 1.437288694294387e-16 1.528375030961643e-16 0.0015209479473700504 -5.870695715711555e-17 1.437288694294387e-16 -5.870695715711555e-17 0.00016084913608462124" energy=-208.4946448820056 pbc="T T T"
Ni       0.00000000      -0.00000000       0.00000000        0       1.00000000       0.00000000       0.00000000      -0.02400160
Ni       2.43905426      -0.00000000       0.00000000        0       1.00000000      -0.00157388      -0.00060130      -0.02376284
Ni       4.87810852      -0.00000000       0.00000000        0       1.00000000       0.00157388      -0.00060130      -0.02376284
Ni       1.21952713       2.11228295       0.00000000        0       1.00000000      -0.00130769      -0.00106237      -0.02376284
Ni       3.65858139       2.11228295       0.00000000        0       1.00000000       0.00000000       0.00000000      -0.02839655
Ni       6.09763564       2.11228295       0.00000000        0       1.00000000       0.00130769      -0.00106237      -0.02376284
Ni       2.43905426       4.22456590       0.00000000        0       1.00000000       0.00026620       0.00166367      -0.02376284
Ni       4.87810852       4.22456590       0.00000000        0       1.00000000      -0.00026620       0.00166367      -0.02376284
Ni       7.31716277       4.22456590       0.00000000        0       1.00000000      -0.00000000      -0.00000000      -0.01350669
Ni       1.21952713       0.70409432       2.01167273        1       1.00000000      -0.02653640      -0.01532080       0.07045389
Ni       3.65858139       0.70409432       2.01167273        1       1.00000000      -0.00000000      -0.00354959      -0.01744038
Ni       6.09763564       0.70409432       2.01167273        1       1.00000000       0.02653640      -0.01532080       0.07045389
Ni       2.43905426       2.81637726       2.01167273        1       1.00000000      -0.00307404       0.00177480      -0.01744038
Ni       4.87810852       2.81637726       2.01167273        1       1.00000000       0.00307404       0.00177480      -0.01744038
Ni       7.31716277       2.81637726       2.01167273        1       1.00000000      -0.00000000      -0.02710372       0.03567656
Ni       3.65858139       4.92866021       2.01167273        1       1.00000000       0.00000000       0.03064159       0.07045389
Ni       6.09763564       4.92866021       2.01167273        1       1.00000000      -0.02347251       0.01355186       0.03567656
Ni       8.53668990       4.92866021       2.01167273        1       1.00000000       0.02347251       0.01355186       0.03567656
Ni       0.00000000       1.39442839       4.06269569        2       1.00000000      -0.00000000       0.00683356       0.02961321
Ni       2.43880830       1.40804663       4.03414927        2       1.00000000       0.00410438       0.00236967      -0.00988676
Ni       4.87835448       1.40804663       4.03414927        2       1.00000000      -0.00410438       0.00236967      -0.00988676
Ni       1.21929348       3.52060648       4.03224008        2       1.00000000      -0.00139268       0.00080406      -0.01366439
Ni       3.65858139       3.52075559       4.03414927        2       1.00000000       0.00000000      -0.00473933      -0.00988676
Ni       6.09786929       3.52060648       4.03224008        2       1.00000000       0.00139268       0.00080406      -0.01366439
Ni       2.45097098       5.63963465       4.06269569        2       1.00000000      -0.00591804      -0.00341678       0.02961321
Ni       4.86619180       5.63963465       4.06269569        2       1.00000000       0.00591804      -0.00341678       0.02961321
Ni       7.31716277       5.63248474       4.03224008        2       1.00000000       0.00000000      -0.00160813      -0.01366439
Ni       0.00000000      -0.00000000       6.17363184        3       1.00000000      -0.00000000       0.00000000      -0.00576432
Ni       2.45756983       0.00036339       6.04055909        3       1.00000000       0.00171539       0.00521329       0.00545253
Ni       4.85959294       0.00036339       6.04055909        3       1.00000000      -0.00171539       0.00521329       0.00545253
Ni       1.22909962       2.12813622       6.04055909        3       1.00000000       0.00537253      -0.00112108       0.00545253
Ni       3.65858139       2.11228295       6.04398893        3       1.00000000      -0.00000000      -0.00000000       0.00244417
Ni       6.08806315       2.12813622       6.04055909        3       1.00000000      -0.00537253      -0.00112108       0.00545253
Ni       2.43011117       4.20834924       6.04055909        3       1.00000000       0.00365715      -0.00409221       0.00545253
Ni       4.88705160       4.20834924       6.04055909        3       1.00000000      -0.00365715      -0.00409221       0.00545253
Ni       7.31716277       4.22456590       6.04750149        3       1.00000000      -0.00000000      -0.00000000      -0.00338938
O       -0.00000000       0.00000000       7.97518974        0       0.00000000      -0.00000000       0.00000000      -0.04618476
H        0.00000000      -0.00000000       8.95259523        0       0.00000000       0.00000000      -0.00000000      -0.05559540
