36
Lattice="8.530808755166998 -2.5386237190646034e-15 -3.9793378221843725e-15 4.2654043775835015 7.387897096801325 -2.397330953518344e-16 -4.332154301559897e-15 2.1998070790243896e-15 9.988816135045937" Properties=species:S:1:pos:R:3:tags:I:1:initial_magmoms:R:1:forces:R:3 stress="-7.245778168284145e-05 -2.7487032735617402e-17 -2.851591582492529e-17 -2.7487032735617402e-17 -7.245778168250838e-05 2.316491815067078e-17 -2.851591582492529e-17 2.316491815067078e-17 -3.686839792373109e-05" energy=-137.43342948961248 pbc="T T T"
Au       0.00000000       0.00000000       0.10091983        4       0.00000000       0.00000000       0.00000000       0.05605627
Au       2.84360292       0.00000000       0.10091983        4       0.00000000       0.00000000       0.00000000       0.05605627
Au       5.68720584       0.00000000       0.10091983        4       0.00000000      -0.00000000       0.00000000       0.05605627
Au       1.42180146       2.46263237       0.10091983        4       0.00000000       0.00000000      -0.00000000       0.05605627
Au       4.26540438       2.46263237       0.10091983        4       0.00000000      -0.00000000       0.00000000       0.05605627
Au       7.10900730       2.46263237       0.10091983        4       0.00000000      -0.00000000       0.00000000       0.05605627
Au       2.84360292       4.92526473       0.10091983        4       0.00000000       0.00000000      -0.00000000       0.05605627
Au       5.68720584       4.92526473       0.10091983        4       0.00000000       0.00000000      -0.00000000       0.05605627
Au       8.53080876       4.92526473       0.10091983        4       0.00000000      -0.00000000      -0.00000000       0.05605627
Au       1.42180146       0.82087746       2.53104285        3       0.00000000       0.00000000       0.00000000       0.01911680
Au       4.26540438       0.82087746       2.53104285        3       0.00000000       0.00000000       0.00000000       0.01911680
Au       7.10900730       0.82087746       2.53104285        3       0.00000000      -0.00000000       0.00000000       0.01911680
Au       2.84360292       3.28350982       2.53104285        3       0.00000000       0.00000000      -0.00000000       0.01911680
Au       5.68720584       3.28350982       2.53104285        3       0.00000000       0.00000000       0.00000000       0.01911680
Au       8.53080876       3.28350982       2.53104285        3       0.00000000      -0.00000000       0.00000000       0.01911680
Au       4.26540438       5.74614219       2.53104285        3       0.00000000       0.00000000      -0.00000000       0.01911680
Au       7.10900730       5.74614219       2.53104285        3       0.00000000      -0.00000000      -0.00000000       0.01911680
Au       9.95261021       5.74614219       2.53104285        3       0.00000000      -0.00000000      -0.00000000       0.01911680
Au       0.00000000       1.64175491       4.96056925        2       0.00000000       0.00000000       0.00000000      -0.01911680
Au       2.84360292       1.64175491       4.96056925        2       0.00000000       0.00000000       0.00000000      -0.01911680
Au       5.68720584       1.64175491       4.96056925        2       0.00000000      -0.00000000       0.00000000      -0.01911680
Au       1.42180146       4.10438728       4.96056925        2       0.00000000       0.00000000      -0.00000000      -0.01911680
Au       4.26540438       4.10438728       4.96056925        2       0.00000000       0.00000000      -0.00000000      -0.01911680
Au       7.10900730       4.10438728       4.96056925        2       0.00000000      -0.00000000      -0.00000000      -0.01911680
Au       2.84360292       6.56701964       4.96056925        2       0.00000000       0.00000000      -0.00000000      -0.01911680
Au       5.68720584       6.56701964       4.96056925        2       0.00000000       0.00000000      -0.00000000      -0.01911680
Au       8.53080876       6.56701964       4.96056925        2       0.00000000      -0.00000000      -0.00000000      -0.01911680
Au       0.00000000       0.00000000       7.39069227        1       0.00000000       0.00000000       0.00000000      -0.05605627
Au       2.84360292       0.00000000       7.39069227        1       0.00000000       0.00000000       0.00000000      -0.05605627
Au       5.68720584       0.00000000       7.39069227        1       0.00000000      -0.00000000       0.00000000      -0.05605627
Au       1.42180146       2.46263237       7.39069227        1       0.00000000       0.00000000      -0.00000000      -0.05605627
Au       4.26540438       2.46263237       7.39069227        1       0.00000000       0.00000000       0.00000000      -0.05605627
Au       7.10900730       2.46263237       7.39069227        1       0.00000000      -0.00000000       0.00000000      -0.05605627
Au       2.84360292       4.92526473       7.39069227        1       0.00000000       0.00000000      -0.00000000      -0.05605627
Au       5.68720584       4.92526473       7.39069227        1       0.00000000      -0.00000000      -0.00000000      -0.05605627
Au       8.53080876       4.92526473       7.39069227        1       0.00000000      -0.00000000      -0.00000000      -0.05605627
