20
Lattice="27.84 0.0 0.0 0.0 27.84 0.0 0.0 0.0 27.84" Properties=species:S:1:pos:R:3:initial_magmoms:R:1:forces:R:3 stress="1.4405194549464492e-05 -6.107461691069905e-18 -2.0617561919269957e-05 -6.107461691069905e-18 7.120425222410512e-05 1.9489207675497365e-18 -2.0617561919269957e-05 1.9489207675497365e-18 1.4405194549464546e-05" energy=-97.02057766181701 pbc="T T T"
Pt      12.04245414      12.01578579      13.96876834       0.00000000       0.02179852       0.06928932      -0.04379012
Pt      11.95345593      13.92000000      11.95345593       0.00000000      -0.06116463      -0.00000000      -0.06116463
Pt      10.28052600      13.92000000      14.05384760       0.00000000       0.05198674      -0.00000000       0.03249479
Pt      12.05442251      13.92000000      15.91201736       0.00000000       0.06086469      -0.00000000       0.04005772
Pt      12.04245414      15.82421421      13.96876834       0.00000000       0.02179852      -0.06928932      -0.04379012
Pt      13.96876834      12.01578579      12.04245414       0.00000000      -0.04379012       0.06928932       0.02179852
Pt      13.94331412      10.25040824      13.94331412       0.00000000       0.01841624       0.07214243       0.01841624
Pt      13.96993099      11.99556258      15.88444764       0.00000000       0.00958229       0.06224874      -0.04541858
Pt      15.88444764      11.99556258      13.96993099       0.00000000      -0.04541858       0.06224874       0.00958229
Pt      14.05384760      13.92000000      10.28052600       0.00000000       0.03249479       0.00000000       0.05198674
Pt      13.96876834      15.82421421      12.04245414       0.00000000      -0.04379012      -0.06928932       0.02179852
Pt      15.91201736      13.92000000      12.05442251       0.00000000       0.04005772       0.00000000       0.06086469
Pt      13.95555946      13.92000000      13.95555946       0.00000000      -0.03500073       0.00000000      -0.03500073
Pt      13.96993099      15.84443742      15.88444764       0.00000000       0.00958229      -0.06224874      -0.04541858
Pt      15.89454134      13.92000000      15.89454134       0.00000000      -0.03386981      -0.00000000      -0.03386981
Pt      15.88444764      15.84443742      13.96993099       0.00000000      -0.04541858      -0.06224874       0.00958229
Pt      13.96970009      13.92000000      17.64459328       0.00000000       0.04459897       0.00000000       0.00688810
Pt      13.94331412      17.58959176      13.94331412       0.00000000       0.01841624      -0.07214243       0.01841624
Pt      17.64459328      13.92000000      13.96970009       0.00000000       0.00688810       0.00000000       0.04459897
O       10.69070740      13.92000000      10.69070740       0.00000000      -0.02803253      -0.00000000      -0.02803253
