20
Lattice="27.84 0.0 0.0 0.0 27.84 0.0 0.0 0.0 27.84" Properties=species:S:1:pos:R:3:initial_magmoms:R:1:forces:R:3 stress="-1.996138683609398e-05 -2.0513090652595117e-06 -2.0513090652552046e-06 -2.0513090652595117e-06 -1.996138683609222e-05 -2.051309065255779e-06 -2.0513090652552046e-06 -2.051309065255779e-06 -1.9961386836098575e-05" energy=-97.27350514737164 pbc="T T T"
Pt      12.03513932      12.03513932      13.99030651       0.00000000      -0.03145519      -0.03145519      -0.01146879
Pt      12.03513932      13.99030651      12.03513932       0.00000000      -0.03145519      -0.01146879      -0.03145519
Pt      10.27969801      13.99706782      13.99706782       0.00000000      -0.00843707      -0.00956897      -0.00956897
Pt      12.04537642      13.93768796      15.88173119       0.00000000      -0.01493304       0.01340099       0.01322778
Pt      12.04537642      15.88173119      13.93768796       0.00000000      -0.01493304       0.01322778       0.01340099
Pt      13.99030651      12.03513932      12.03513932       0.00000000      -0.01146879      -0.03145519      -0.03145519
Pt      13.99706782      10.27969801      13.99706782       0.00000000      -0.00956897      -0.00843707      -0.00956897
Pt      13.93768796      12.04537642      15.88173119       0.00000000       0.01340099      -0.01493304       0.01322778
Pt      15.88173119      12.04537642      13.93768796       0.00000000       0.01322778      -0.01493304       0.01340099
Pt      13.99706782      13.99706782      10.27969801       0.00000000      -0.00956897      -0.00956897      -0.00843707
Pt      13.93768796      15.88173119      12.04537642       0.00000000       0.01340099       0.01322778      -0.01493304
Pt      15.88173119      13.93768796      12.04537642       0.00000000       0.01322778       0.01340099      -0.01493304
Pt      13.97814416      13.97814416      13.97814416       0.00000000       0.04182568       0.04182568       0.04182568
Pt      13.95098649      15.88423826      15.88423826       0.00000000       0.00132941       0.01792052       0.01792052
Pt      15.88423826      13.95098649      15.88423826       0.00000000       0.01792052       0.00132941       0.01792052
Pt      15.88423826      15.88423826      13.95098649       0.00000000       0.01792052       0.01792052       0.00132941
Pt      13.96329677      13.96329677      17.63376562       0.00000000      -0.01476204      -0.01476204       0.02834585
Pt      13.96329677      17.63376562      13.96329677       0.00000000      -0.01476204       0.02834585      -0.01476204
Pt      17.63376562      13.96329677      13.96329677       0.00000000       0.02834585      -0.01476204      -0.01476204
O       11.92332317      11.92332317      11.92332317       0.00000000       0.00074481       0.00074481       0.00074481
