39
Lattice="7.979282652125478 4.014786654423154e-15 4.603398524423124e-16 3.9896413260627424 6.910261480717139 4.2885637721088913e-16 0.0 0.0 21.55037188511455" Properties=species:S:1:pos:R:3:tags:I:1:initial_magmoms:R:1:forces:R:3 stress="0.0009259526476664906 4.9591399666601206e-05 0.0006245683263457226 4.9591399666601206e-05 -0.0011781813118564091 0.0007231095512170179 0.0006245683263457226 0.0007231095512170179 3.988269557416227e-05" energy=-280.0605893990629 pbc="T T T"
Rh      -0.00000000       0.00000000       0.00000000        0       0.00000000       0.00160472       0.00274079       0.00036716
Rh       2.65976088       0.00000000       0.00000000        0       0.00000000      -0.00159350       0.00117652      -0.00206677
Rh       5.31952177       0.00000000       0.00000000        0       0.00000000       0.00143320       0.00714550      -0.00360360
Rh       1.32988044       2.30342049       0.00000000        0       0.00000000      -0.00053640      -0.00914327      -0.00880244
Rh       3.98964133       2.30342049       0.00000000        0       0.00000000       0.00415821      -0.00296439      -0.00218850
Rh       6.64940221       2.30342049       0.00000000        0       0.00000000      -0.00193296      -0.00350271      -0.00084455
Rh       2.65976088       4.60684099       0.00000000        0       0.00000000       0.00780190       0.00508410       0.01448353
Rh       5.31952177       4.60684099       0.00000000        0       0.00000000       0.00093458       0.00447789      -0.00206877
Rh       7.97928265       4.60684099       0.00000000        0       0.00000000      -0.00632750       0.00349968       0.02147922
Rh       1.32988044       0.76780683       2.16825338        1       0.00000000       0.00663838       0.00739110      -0.05146330
Rh       3.98964133       0.76780683       2.16825338        1       0.00000000       0.03078013       0.00644363      -0.01905085
Rh       6.64940221       0.76780683       2.16825338        1       0.00000000      -0.00486358       0.00802174      -0.00828964
Rh       2.65976088       3.07122732       2.16825338        1       0.00000000       0.00875408      -0.01425093      -0.01834729
Rh       5.31952177       3.07122732       2.16825338        1       0.00000000       0.01368642      -0.00670685      -0.07499600
Rh       7.97928265       3.07122732       2.16825338        1       0.00000000       0.01523164      -0.02257054      -0.00970090
Rh       3.98964133       5.37464782       2.16825338        1       0.00000000      -0.00741311       0.02242274       0.00659282
Rh       6.64940221       5.37464782       2.16825338        1       0.00000000       0.02541452       0.02011085       0.01365423
Rh       9.30916309       5.37464782       2.16825338        1       0.00000000       0.01188031       0.06057049       0.03453198
Rh       0.00528002       1.52621005       4.35797623        2       0.00000000       0.00097692      -0.00388799       0.01631449
Rh       2.66380168       1.52933777       4.35394266        2       0.00000000      -0.00142494      -0.00301490       0.01591014
Rh       5.32446622       1.53943592       4.34841162        2       0.00000000      -0.00158129       0.00394421      -0.00087783
Rh       1.33545241       3.85136789       4.34701840        2       0.00000000      -0.00116226       0.00495710       0.00742890
Rh       3.99281863       3.84383149       4.34552660        2       0.00000000      -0.00087566       0.00160733       0.01285584
Rh       6.65657006       3.84195786       4.34578032        2       0.00000000      -0.00374873       0.00436876       0.01488548
Rh       2.67868306       6.16031267       4.37726314        2       0.00000000       0.00851638       0.00940211       0.01369437
Rh       5.32336508       6.14640953       4.34847475        2       0.00000000      -0.00310203       0.00350604       0.01013088
Rh       7.97237889       6.15975195       4.37550319        2       0.00000000      -0.00289067       0.00569834       0.00293650
Rh       0.00447086       0.00602786       6.59810475        3       0.00000000      -0.00313627       0.01414982       0.03445236
Rh       2.68180480       0.01394716       6.56888367        3       0.00000000       0.00856781      -0.00220271       0.01985277
Rh       5.33264766       0.01468088       6.53083937        3       0.00000000       0.00655360       0.00880856      -0.01323044
Rh       1.33835690       2.35712541       6.47645757        3       0.00000000       0.00081439       0.00402681       0.01152323
Rh       4.00233479       2.31557524       6.50843343        3       0.00000000      -0.00228142       0.00118401       0.00499399
Rh       6.65604041       2.31238318       6.51050247        3       0.00000000      -0.00370161       0.00329051       0.00768828
Rh       2.66953142       4.61067736       6.51701306        3       0.00000000      -0.00506214       0.00872892       0.00500013
Rh       5.33204045       4.56561467       6.49821050        3       0.00000000      -0.00243748      -0.00250810       0.00746525
Rh       7.98453799       4.61080179       6.51412375        3       0.00000000       0.00584361       0.00188067       0.00928870
O        1.34360773       0.23140752       8.16169359        0       0.00000000      -0.02106557      -0.06086029       0.02136107
O        1.36571921      -0.99400602       9.03235139        0       0.00000000      -0.03356710      -0.00827687      -0.07943656
H        1.97400641      -0.66677411       9.73166951        0       0.00000000      -0.05088656      -0.08474870      -0.01192390
