39
Lattice="7.979282652125478 4.014786654423154e-15 4.603398524423124e-16 3.9896413260627424 6.910261480717139 4.2885637721088913e-16 0.0 0.0 21.55037188511455" Properties=species:S:1:pos:R:3:tags:I:1:initial_magmoms:R:1:forces:R:3 stress="0.00013430237012987747 0.00017544644097658356 0.0003573814086423175 0.00017544644097658356 -0.0006790108114046838 0.001815405360090869 0.0003573814086423175 0.001815405360090869 0.0009176896119338831" energy=-281.72477295368094 pbc="T T T"
Rh      -0.00000000       0.00000000       0.00000000        0       0.00000000       0.01177990       0.00894176       0.00063373
Rh       2.65976088       0.00000000       0.00000000        0       0.00000000       0.00013090       0.00368285       0.00633466
Rh       5.31952177       0.00000000       0.00000000        0       0.00000000      -0.00964423       0.00776321      -0.00302447
Rh       1.32988044       2.30342049       0.00000000        0       0.00000000       0.00018358      -0.00217943      -0.00539884
Rh       3.98964133       2.30342049       0.00000000        0       0.00000000       0.00004772      -0.00261024      -0.00365807
Rh       6.64940221       2.30342049       0.00000000        0       0.00000000       0.00276872       0.00512181      -0.00959365
Rh       2.65976088       4.60684099       0.00000000        0       0.00000000      -0.00066468      -0.00518370       0.04358101
Rh       5.31952177       4.60684099       0.00000000        0       0.00000000       0.00845929       0.00205359      -0.01144037
Rh       7.97928265       4.60684099       0.00000000        0       0.00000000      -0.00544863      -0.00040719      -0.01148465
Rh       1.32988044       0.76780683       2.16825338        1       0.00000000       0.00456182       0.01239057       0.05133310
Rh       3.98964133       0.76780683       2.16825338        1       0.00000000       0.00608601       0.02064001       0.04326579
Rh       6.64940221       0.76780683       2.16825338        1       0.00000000       0.01833326       0.05979599      -0.00210904
Rh       2.65976088       3.07122732       2.16825338        1       0.00000000       0.00267746       0.02443645       0.08435375
Rh       5.31952177       3.07122732       2.16825338        1       0.00000000       0.01560112       0.04342507      -0.01872358
Rh       7.97928265       3.07122732       2.16825338        1       0.00000000       0.02144006       0.02602474      -0.03531518
Rh       3.98964133       5.37464782       2.16825338        1       0.00000000       0.06892750       0.01197240       0.06576850
Rh       6.64940221       5.37464782       2.16825338        1       0.00000000      -0.00427091       0.05030560      -0.01568726
Rh       9.30916309       5.37464782       2.16825338        1       0.00000000      -0.01953666       0.00754065       0.05468387
Rh       0.01221195       1.55367545       4.35583583        2       0.00000000      -0.00076323       0.00609179       0.00023273
Rh       2.66482942       1.52895874       4.36171781        2       0.00000000      -0.00831968       0.01398375      -0.02825128
Rh       5.31582023       1.55476875       4.35706695        2       0.00000000       0.00072673       0.00819605      -0.00798546
Rh       1.33043713       3.84985605       4.36483920        2       0.00000000      -0.00745471       0.00697320       0.01454970
Rh       3.99670554       3.84688989       4.35967608        2       0.00000000      -0.00796942       0.00255118       0.00026125
Rh       6.65796842       3.86006061       4.34071009        2       0.00000000       0.00262657       0.00148808       0.00529933
Rh       2.66798377       6.15711650       4.33975552        2       0.00000000      -0.01036633       0.00739173      -0.00040603
Rh       5.34578438       6.16860300       4.38018411        2       0.00000000      -0.01799879      -0.00232494      -0.02827108
Rh       7.97186966       6.16804934       4.36842914        2       0.00000000       0.00558100       0.00084253      -0.01884303
Rh      -0.00831838       0.01441310       6.50766268        3       0.00000000      -0.01298257       0.00137246      -0.01179435
Rh       2.67093575      -0.02372964       6.75798458        3       0.00000000      -0.03884129       0.04379481      -0.11686276
Rh       5.36065294       0.01946655       6.49944927        3       0.00000000       0.00503475       0.01126361      -0.01507272
Rh       1.29556984       2.35065951       6.55143010        3       0.00000000       0.01142171      -0.00868466       0.00325463
Rh       4.04179708       2.34797070       6.55777402        3       0.00000000      -0.02415375      -0.01297607      -0.00362902
Rh       6.65824064       2.32758951       6.51383689        3       0.00000000      -0.00093269      -0.00896437      -0.01824078
Rh       2.67406839       4.66211523       6.50195856        3       0.00000000      -0.00545103       0.00068068      -0.00652880
Rh       5.32809747       4.62793475       6.50893254        3       0.00000000      -0.02406361      -0.01786070      -0.02983052
Rh       7.99463075       4.63155538       6.50509100        3       0.00000000       0.00030007       0.00447362       0.03886186
O        2.65924196       1.70614804       7.81335414        0       0.00000000       0.00372087      -0.03518342       0.01600616
O        3.06833560      -0.85473502       8.56046436        0       0.00000000      -0.01631389       0.06688947       0.06798891
H        3.18656739      -0.02168278       9.08116527        0       0.00000000       0.02476708      -0.36371298      -0.09425801
