39
Lattice="7.979282652125478 4.014786654423154e-15 4.603398524423124e-16 3.9896413260627424 6.910261480717139 4.2885637721088913e-16 0.0 0.0 21.55037188511455" Properties=species:S:1:pos:R:3:tags:I:1:initial_magmoms:R:1:forces:R:3 stress="0.0001872810435189949 0.00014983541491334925 0.0005114835718891113 0.00014983541491334925 -0.0004216297722383529 0.0001198636567450628 0.0005114835718891113 0.0001198636567450628 0.00039548883283040473" energy=-279.85556199663347 pbc="T T T"
Rh      -0.00000000       0.00000000       0.00000000        0       0.00000000       0.00549957       0.00442417      -0.00880713
Rh       2.65976088       0.00000000       0.00000000        0       0.00000000      -0.00567451       0.00420562      -0.00844337
Rh       5.31952177       0.00000000       0.00000000        0       0.00000000       0.00097707       0.00556033       0.01220316
Rh       1.32988044       2.30342049       0.00000000        0       0.00000000      -0.00019753      -0.00734001      -0.00812684
Rh       3.98964133       2.30342049       0.00000000        0       0.00000000      -0.00091384      -0.00130989      -0.00403350
Rh       6.64940221       2.30342049       0.00000000        0       0.00000000       0.00231068      -0.00060776      -0.00337510
Rh       2.65976088       4.60684099       0.00000000        0       0.00000000       0.00486701      -0.00161635       0.01726538
Rh       5.31952177       4.60684099       0.00000000        0       0.00000000       0.00118516       0.00150282      -0.00432325
Rh       7.97928265       4.60684099       0.00000000        0       0.00000000      -0.00401819      -0.00261386       0.01873450
Rh       1.32988044       0.76780683       2.16825338        1       0.00000000       0.00982319      -0.00459245      -0.02902394
Rh       3.98964133       0.76780683       2.16825338        1       0.00000000      -0.01538893      -0.01348499       0.01101969
Rh       6.64940221       0.76780683       2.16825338        1       0.00000000       0.02357716      -0.01688657       0.00497781
Rh       2.65976088       3.07122732       2.16825338        1       0.00000000      -0.02006764      -0.00633667       0.01306872
Rh       5.31952177       3.07122732       2.16825338        1       0.00000000       0.00794363       0.00278692      -0.09200441
Rh       7.97928265       3.07122732       2.16825338        1       0.00000000       0.03367290      -0.00338271       0.01242060
Rh       3.98964133       5.37464782       2.16825338        1       0.00000000      -0.00557145       0.01698048       0.00707675
Rh       6.64940221       5.37464782       2.16825338        1       0.00000000       0.01765353       0.01807346       0.01333542
Rh       9.30916309       5.37464782       2.16825338        1       0.00000000       0.00994344       0.00493348       0.09769278
Rh       0.00747282       1.53283706       4.35185891        2       0.00000000      -0.00958703       0.00733300       0.00050438
Rh       2.65700735       1.53320240       4.35364186        2       0.00000000       0.00605885       0.00126076      -0.00674171
Rh       5.32308771       1.53197393       4.33910534        2       0.00000000      -0.00315535       0.01031136      -0.00138031
Rh       1.33374816       3.83061802       4.37520908        2       0.00000000       0.00113365      -0.02333664       0.01364203
Rh       3.98893898       3.83949693       4.34265511        2       0.00000000       0.00173879       0.01868734      -0.00502932
Rh       6.65570816       3.83833116       4.34366144        2       0.00000000      -0.00162158       0.02155090      -0.00545514
Rh       2.67873015       6.15186914       4.37818468        2       0.00000000      -0.00416019       0.00207788       0.00586824
Rh       5.32222943       6.14325646       4.34975045        2       0.00000000       0.00204702       0.01224223      -0.01901847
Rh       7.96951213       6.15149623       4.37523611        2       0.00000000       0.01409359      -0.00240391       0.00807016
Rh      -0.00393196      -0.00161264       6.58150960        3       0.00000000      -0.03658502      -0.03559037      -0.00568381
Rh       2.68729318      -0.00749734       6.57623498        3       0.00000000       0.03538119      -0.02903098      -0.01756067
Rh       5.32882176       0.00993454       6.52204721        3       0.00000000       0.00017017       0.01181263       0.00913166
Rh       1.33406098       2.32837632       6.56068355        3       0.00000000       0.00510584       0.04881563       0.01781086
Rh       4.01438028       2.31419775       6.49298775        3       0.00000000      -0.01210596      -0.00237598      -0.00373220
Rh       6.63374633       2.31420810       6.49699079        3       0.00000000       0.01537183       0.00179257      -0.00600481
Rh       2.67293999       4.61068503       6.52325301        3       0.00000000      -0.00206042      -0.02170996       0.00400149
Rh       5.32508315       4.57936560       6.49793831        3       0.00000000       0.00407669       0.00861220       0.01482036
Rh       7.97691365       4.60867822       6.52030047        3       0.00000000       0.01163120      -0.01618611       0.00051415
O        1.34849776       0.69595612       7.90656108        0       0.00000000      -0.00249083      -0.00265946      -0.01125904
O        1.24308548      -0.04540511       9.59107902        0       0.00000000      -0.03426736      -0.04116628       0.00584899
H        2.17807966       0.02639858       9.90130235        0       0.00000000      -0.05639633       0.02966718      -0.04800412
