39
Lattice="7.979282652125478 4.014786654423154e-15 4.603398524423124e-16 3.9896413260627424 6.910261480717139 4.2885637721088913e-16 0.0 0.0 21.55037188511455" Properties=species:S:1:pos:R:3:tags:I:1:initial_magmoms:R:1:forces:R:3 stress="0.0004233314189427684 5.48613401746851e-05 -0.00022266629294636557 5.48613401746851e-05 0.00048772614844665163 -0.00011323051089906715 -0.00022266629294636557 -0.00011323051089906715 -0.00010900102994511156" energy=-279.8148006841341 pbc="T T T"
Rh      -0.00000000       0.00000000       0.00000000        0       0.00000000      -0.00037856       0.00053745       0.00499906
Rh       2.65976088       0.00000000       0.00000000        0       0.00000000      -0.00335443       0.00222815      -0.00043736
Rh       5.31952177       0.00000000       0.00000000        0       0.00000000       0.00322382       0.00295811       0.00128548
Rh       1.32988044       2.30342049       0.00000000        0       0.00000000      -0.00076646      -0.00428888       0.00349027
Rh       3.98964133       2.30342049       0.00000000        0       0.00000000       0.00072490       0.00069737       0.00511773
Rh       6.64940221       2.30342049       0.00000000        0       0.00000000      -0.00056885      -0.00439035       0.00280479
Rh       2.65976088       4.60684099       0.00000000        0       0.00000000       0.00418757       0.00208705      -0.00108824
Rh       5.31952177       4.60684099       0.00000000        0       0.00000000      -0.00397430       0.00145903       0.00024478
Rh       7.97928265       4.60684099       0.00000000        0       0.00000000      -0.00133611      -0.00097522       0.02392707
Rh       1.32988044       0.76780683       2.16825338        1       0.00000000      -0.01164129      -0.00276393      -0.01380538
Rh       3.98964133       0.76780683       2.16825338        1       0.00000000      -0.00343061      -0.00238399      -0.01360616
Rh       6.64940221       0.76780683       2.16825338        1       0.00000000      -0.00437680       0.00250374      -0.00780419
Rh       2.65976088       3.07122732       2.16825338        1       0.00000000      -0.00161819       0.00853041      -0.01597152
Rh       5.31952177       3.07122732       2.16825338        1       0.00000000      -0.00341712       0.00441921      -0.02113177
Rh       7.97928265       3.07122732       2.16825338        1       0.00000000      -0.00914452      -0.03912990       0.03330980
Rh       3.98964133       5.37464782       2.16825338        1       0.00000000      -0.00504433      -0.01279244      -0.00624031
Rh       6.64940221       5.37464782       2.16825338        1       0.00000000      -0.02512332       0.00553556       0.02258066
Rh       9.30916309       5.37464782       2.16825338        1       0.00000000       0.01626704       0.00446180       0.02190639
Rh      -0.00298189       1.51641155       4.36826789        2       0.00000000      -0.00191550       0.03815455       0.01243949
Rh       2.65501991       1.53641067       4.35100902        2       0.00000000      -0.01330239      -0.02587477      -0.01731732
Rh       5.31720649       1.53682444       4.35279852        2       0.00000000       0.01285130      -0.02570561      -0.02005986
Rh       1.32554179       3.83568148       4.35835496        2       0.00000000       0.01592605       0.00750984      -0.01624386
Rh       3.98727044       3.84086062       4.35585137        2       0.00000000      -0.00054908      -0.01671809      -0.03569358
Rh       6.64769985       3.83703290       4.35847697        2       0.00000000      -0.01956402       0.00875923      -0.01211607
Rh       2.66778272       6.14941640       4.36895347        2       0.00000000       0.00068710       0.00539878       0.01987171
Rh       5.30865273       6.14741038       4.36460160        2       0.00000000       0.00054300       0.00375505       0.01639966
Rh       7.97758260       6.14061471       4.35568861        2       0.00000000      -0.00006409      -0.01886836      -0.02452069
Rh      -0.00806499      -0.01150055       6.59291114        3       0.00000000       0.00513924       0.05289883       0.01679968
Rh       2.66494761      -0.00214005       6.50888207        3       0.00000000       0.02472551      -0.00072345       0.01090192
Rh       5.30370417      -0.00161098       6.51375513        3       0.00000000      -0.01655281       0.00012771       0.00457426
Rh       1.32911424       2.30357034       6.51905122        3       0.00000000       0.03006799       0.03113283      -0.01773099
Rh       3.98308819       2.30181625       6.51275101        3       0.00000000       0.00495388      -0.00773481      -0.02595800
Rh       6.63707223       2.30777459       6.51977927        3       0.00000000      -0.03029078       0.03413299      -0.01657887
Rh       2.64568141       4.59056339       6.51968926        3       0.00000000       0.01893698      -0.00178473      -0.00145750
Rh       5.32209489       4.59087797       6.52431617        3       0.00000000      -0.01599188      -0.00298273       0.00232599
Rh       7.97388141       4.60490477       6.51895890        3       0.00000000       0.00234634      -0.01117606      -0.02726895
O        0.18531554       0.36813295       8.48977347        0       0.00000000       0.02100251      -0.04758739      -0.01227180
O        0.15043041      -0.91161061       9.16215026        0       0.00000000       0.05792816      -0.00882824       0.03256294
H        0.64288463      -0.67038755       9.98082273        0       0.00000000      -0.04710597       0.01742127       0.07176076
