2
Lattice="15.0 0.0 0.0 0.0 15.0 0.0 0.0 0.0 15.0" Properties=species:S:1:pos:R:3:initial_magmoms:R:1:forces:R:3 energy=-8.228204736343638 free_energy=-8.228204736343638 stress="-1.1184952516431788e-06 0.0 -1.1184952516431273e-06 0.0 0.0 0.0 -1.1184952516431273e-06 0.0 -1.1184952516430759e-06" pbc="T T T"
O        7.15157676       7.50000000       7.15157676       1.00000000      -0.00541715       0.00000000      -0.00541715
H        7.84842324       7.50000000       7.84842324       1.00000000       0.00541715       0.00000000       0.00541715
