38
Lattice="8.12023694367038 -2.502811802376711e-15 -3.0154273300879247e-16 4.060118471835193 7.032331477967455 9.12873696737661e-17 0.0 0.0 21.94967493036051" Properties=species:S:1:pos:R:3:tags:I:1:initial_magmoms:R:1:forces:R:3 stress="-0.0008158917301078622 2.2571652860422165e-05 -0.00018947584702131763 2.2571652860422165e-05 -0.0008419552298177813 -0.00010939393128259556 -0.00018947584702131763 -0.00010939393128259556 -0.003994542939494881" energy=-239.6166224434297 pbc="T T T"
Pt       0.00000000       0.00000000       0.00000000        0       0.00000000       0.00534289       0.00308472      -0.22152252
Pt       2.70674565       0.00000000       0.00000000        0       0.00000000      -0.00081431      -0.00025622      -0.21415159
Pt       5.41349130       0.00000000       0.00000000        0       0.00000000      -0.00406002       0.00279066      -0.21338784
Pt       1.35337282       2.34411049       0.00000000        0       0.00000000      -0.00062905      -0.00057710      -0.21415159
Pt       4.06011847       2.34411049       0.00000000        0       0.00000000      -0.00017383      -0.00010036      -0.21176817
Pt       6.76686412       2.34411049       0.00000000        0       0.00000000       0.00024685      -0.00482228      -0.21318687
Pt       2.70674565       4.68822099       0.00000000        0       0.00000000       0.00038677      -0.00491141      -0.21338784
Pt       5.41349130       4.68822099       0.00000000        0       0.00000000      -0.00405279       0.00262492      -0.21318687
Pt       8.12023694       4.68822099       0.00000000        0       0.00000000       0.00398574       0.00230117      -0.21382240
Pt       1.35337282       0.78137016       2.31293021        1       0.00000000      -0.08220992      -0.04746392       0.16920728
Pt       4.06011847       0.78137016       2.31293021        1       0.00000000       0.08651919      -0.02758372       0.18541043
Pt       6.76686412       0.78137016       2.31293021        1       0.00000000      -0.00447363       0.04304231       0.23216988
Pt       2.70674565       3.12548066       2.31293021        1       0.00000000       0.01937140       0.08871967       0.18541043
Pt       5.41349130       3.12548066       2.31293021        1       0.00000000      -0.02231598      -0.01288413       0.23610213
Pt       8.12023694       3.12548066       2.31293021        1       0.00000000       0.00392784      -0.00792955       0.20433263
Pt       4.06011847       5.46959115       2.31293021        1       0.00000000       0.03503892      -0.02539543       0.23216988
Pt       6.76686412       5.46959115       2.31293021        1       0.00000000      -0.00490327       0.00736639       0.20433263
Pt       9.47360977       5.46959115       2.31293021        1       0.00000000      -0.02937419      -0.01695919       0.21420126
Pt       0.00089891       1.56458457       4.60059103        2       0.00000000      -0.00338609      -0.00261192      -0.00614488
Pt       2.70750329       1.56317776       4.57555257        2       0.00000000      -0.00189138      -0.00109199      -0.00569207
Pt       5.40776410       1.56748056       4.60933968        2       0.00000000      -0.00228326      -0.00127366      -0.00106291
Pt       1.35295126       3.90444629       4.59921007        2       0.00000000      -0.00127761       0.00083603      -0.00640545
Pt       4.06136004       3.89952080       4.60933968        2       0.00000000      -0.00224466      -0.00134053      -0.00106291
Pt       6.76703351       3.90694862       4.58862767        2       0.00000000      -0.00244041      -0.00140897      -0.00399270
Pt       2.70678802       6.25098578       4.58015786        2       0.00000000      -0.00173751      -0.00100315      -0.00693673
Pt       5.41553791       6.25081767       4.60059103        2       0.00000000      -0.00395504      -0.00162648      -0.00614488
Pt       8.11794378       6.25179849       4.59921007        2       0.00000000       0.00008522      -0.00152446      -0.00640545
Pt      -0.01384750      -0.00799486       6.94271441        3       0.00000000      -0.00408887      -0.00236071      -0.00666183
Pt       2.70235628      -0.04575728       6.91792473        3       0.00000000      -0.00870191       0.00509149      -0.01291119
Pt       5.42135745      -0.00845623       6.94560081        3       0.00000000      -0.00952734      -0.00341043      -0.00506835
Pt       1.31155117       2.36318783       6.91792473        3       0.00000000       0.00005841      -0.01008182      -0.01291119
Pt       4.08820304       2.36032512       6.96928401        3       0.00000000      -0.01984167      -0.01145559       0.01442796
Pt       6.76306769       2.34359980       6.92991222        3       0.00000000      -0.00677865      -0.00525993       0.00293134
Pt       2.70335542       4.69926139       6.94560081        3       0.00000000      -0.00771719      -0.00654570      -0.00506835
Pt       5.41115081       4.68518853       6.92991222        3       0.00000000      -0.00794456      -0.00324052       0.00293134
Pt       8.11787069       4.68685483       6.93133084        3       0.00000000      -0.00446896      -0.00258016       0.00336804
O        2.72282981       1.57202652       8.51834000        0       0.00000000       0.01840785       0.01062778       0.08073704
H        2.80850883       1.62149333       9.48502605        0       0.00000000       0.06792104       0.03921423       0.04730231
