38
Lattice="8.12023694367038 -2.502811802376711e-15 -3.0154273300879247e-16 4.060118471835193 7.032331477967455 9.12873696737661e-17 0.0 0.0 21.94967493036051" Properties=species:S:1:pos:R:3:tags:I:1:initial_magmoms:R:1:forces:R:3 stress="0.0008434087654421961 -6.582033202374188e-06 5.628494327887012e-05 -6.582033202374188e-06 -0.0008680239700883316 0.0006844113181332807 5.628494327887012e-05 0.0006844113181332807 -0.0034696903565287155" energy=-240.0639148718071 pbc="T T T"
Pt       0.00000000       0.00000000       0.00000000        0       0.00000000      -0.00024935      -0.00504626      -0.21420838
Pt       2.70674565       0.00000000       0.00000000        0       0.00000000      -0.00005238      -0.00496374      -0.21339336
Pt       5.41349130       0.00000000       0.00000000        0       0.00000000      -0.00024329      -0.00858566      -0.19907450
Pt       1.35337282       2.34411049       0.00000000        0       0.00000000      -0.00014772       0.00152585      -0.21629973
Pt       4.06011847       2.34411049       0.00000000        0       0.00000000      -0.00153605       0.00412023      -0.21995690
Pt       6.76686412       2.34411049       0.00000000        0       0.00000000       0.00097591       0.00365920      -0.21954380
Pt       2.70674565       4.68822099       0.00000000        0       0.00000000       0.01159824      -0.00124668      -0.23136368
Pt       5.41349130       4.68822099       0.00000000        0       0.00000000      -0.00064461      -0.00821205      -0.22289221
Pt       8.12023694       4.68822099       0.00000000        0       0.00000000      -0.01172814      -0.00092060      -0.22957172
Pt       1.35337282       0.78137016       2.31293021        1       0.00000000       0.00429277       0.00255554       0.16687316
Pt       4.06011847       0.78137016       2.31293021        1       0.00000000      -0.00053620      -0.06909970       0.25940972
Pt       6.76686412       0.78137016       2.31293021        1       0.00000000       0.00083945      -0.06559459       0.25034628
Pt       2.70674565       3.12548066       2.31293021        1       0.00000000       0.01163494       0.03711370       0.12753889
Pt       5.41349130       3.12548066       2.31293021        1       0.00000000       0.00042688       0.01166281       0.16091384
Pt       8.12023694       3.12548066       2.31293021        1       0.00000000      -0.00726635       0.03913400       0.12367389
Pt       4.06011847       5.46959115       2.31293021        1       0.00000000      -0.10570241       0.05253557       0.24184035
Pt       6.76686412       5.46959115       2.31293021        1       0.00000000       0.11213476       0.05719275       0.24666536
Pt       9.47360977       5.46959115       2.31293021        1       0.00000000      -0.00206329       0.13186852       0.35387504
Pt       0.00117836       1.57517268       4.58992140        2       0.00000000      -0.00060524      -0.00848668       0.00857161
Pt       2.70952115       1.57479543       4.59130351        2       0.00000000       0.00033632      -0.00542767       0.00208229
Pt       5.41505679       1.58325444       4.58880002        2       0.00000000       0.00158219      -0.00802763      -0.00202595
Pt       1.35506052       3.94648984       4.57249448        2       0.00000000      -0.00043878      -0.00263991      -0.00446788
Pt       4.05774793       3.92316459       4.58530417        2       0.00000000       0.00079703      -0.00376301       0.00467473
Pt       6.77301578       3.92339937       4.58493837        2       0.00000000      -0.00058240      -0.00490236       0.00528068
Pt       2.72578208       6.28442690       4.63917506        2       0.00000000       0.00188607      -0.00472803       0.01525527
Pt       5.41623523       6.26236289       4.58919810        2       0.00000000      -0.00425650      -0.00660300       0.01414013
Pt       8.10485089       6.28480137       4.64270201        2       0.00000000      -0.00275608      -0.00543376       0.00361230
Pt      -0.01589265      -0.00057946       6.99237359        3       0.00000000      -0.00444902       0.00324776       0.03551677
Pt       2.73509480       0.00148803       7.00094959        3       0.00000000       0.00009232      -0.00123228      -0.00042315
Pt       5.41849422       0.01456492       6.93823087        3       0.00000000       0.00067973      -0.00818058       0.00535694
Pt       1.35790360       2.38162006       6.86428963        3       0.00000000       0.00074166       0.00126212      -0.00571465
Pt       4.06285606       2.35233467       6.93110601        3       0.00000000       0.00394670      -0.00677611      -0.00327976
Pt       6.77298704       2.35129658       6.92936403        3       0.00000000       0.00018305      -0.00386401       0.00324670
Pt       2.70900574       4.68512593       6.94577375        3       0.00000000       0.00542228      -0.00213208       0.00859187
Pt       5.41830890       4.66146981       6.90886668        3       0.00000000       0.00040809      -0.00907788       0.01547923
Pt       8.12643728       4.68465698       6.94823763        3       0.00000000      -0.00173225       0.00021665       0.00369052
O        1.35861857       0.15010857       8.67861445        0       0.00000000       0.01147203      -0.02693045      -0.01797018
H        1.37547450      -0.78243849       8.98488920        0       0.00000000      -0.02446034      -0.07421997      -0.05644974
