39
Lattice="8.143282129841092 -3.9719248023175796e-16 4.2043796269772325e-15 4.071641064920545 7.05228919462624 1.1826840171501552e-15 0.0 0.0 21.817084989057776" Properties=species:S:1:pos:R:3:tags:I:1:initial_magmoms:R:1:forces:R:3 stress="-0.002082964913366552 -1.4750588130080598e-05 -4.511430336088054e-05 -1.4750588130080598e-05 -0.002266033515736487 0.00014144228218318074 -4.511430336088054e-05 0.00014144228218318074 -0.0013578950735042908" energy=-211.54027552056334 pbc="T T T"
Pd      -0.00000000       0.00000000       0.00000000        0       0.00000000      -0.00018830      -0.00046284      -0.10619850
Pd       2.71442738      -0.00000000       0.00000000        0       0.00000000       0.00051275      -0.00054421      -0.10854268
Pd       5.42885475      -0.00000000       0.00000000        0       0.00000000      -0.00015287      -0.00098311      -0.10815574
Pd       1.35721369       2.35076306       0.00000000        0       0.00000000       0.00063025       0.00059545      -0.11050572
Pd       4.07164106       2.35076306       0.00000000        0       0.00000000      -0.00021162       0.00060574      -0.10363851
Pd       6.78606844       2.35076306       0.00000000        0       0.00000000      -0.00054321       0.00073601      -0.11030773
Pd       2.71442738       4.70152613       0.00000000        0       0.00000000      -0.00021569      -0.00003917      -0.10812446
Pd       5.42885475       4.70152613       0.00000000        0       0.00000000       0.00015556      -0.00036758      -0.10837488
Pd       8.14328213       4.70152613       0.00000000        0       0.00000000      -0.00019159      -0.00025073      -0.11400834
Pd       1.35721369       0.78358769       2.26968927        1       0.00000000      -0.02310480      -0.02033151       0.14637306
Pd       4.07164106       0.78358769       2.26968927        1       0.00000000      -0.00114652      -0.01078461       0.08428142
Pd       6.78606844       0.78358769       2.26968927        1       0.00000000       0.02233749      -0.02385908       0.14849843
Pd       2.71442738       3.13435075       2.26968927        1       0.00000000       0.01078757      -0.00035117       0.08453506
Pd       5.42885475       3.13435075       2.26968927        1       0.00000000      -0.00624976       0.00327816       0.09276696
Pd       8.14328213       3.13435075       2.26968927        1       0.00000000      -0.00418163      -0.00228682       0.10778649
Pd       4.07164106       5.48511382       2.26968927        1       0.00000000      -0.00149032       0.02211746       0.17454614
Pd       6.78606844       5.48511382       2.26968927        1       0.00000000      -0.00117997       0.00717574       0.11673357
Pd       9.50049582       5.48511382       2.26968927        1       0.00000000       0.00664223       0.01475217       0.11176332
Pd      -0.00094106       1.55835085       4.54274654        2       0.00000000      -0.00112254      -0.00092023       0.01304008
Pd       2.71410222       1.56397740       4.52504676        2       0.00000000      -0.00019724       0.01263430      -0.01136910
Pd       5.42778825       1.56371741       4.52489051        2       0.00000000      -0.00332362       0.01204803      -0.00995520
Pd       1.35972871       3.92041431       4.52106608        2       0.00000000      -0.00879177       0.00286128      -0.00942380
Pd       4.07219837       3.91603668       4.53351880        2       0.00000000      -0.00044964       0.00725269      -0.02728509
Pd       6.78159584       3.92030132       4.52539146        2       0.00000000       0.00490105       0.00469746      -0.00857605
Pd       2.72527982       6.27443404       4.55467195        2       0.00000000       0.00145822       0.00654855       0.03130583
Pd       5.42133354       6.27147896       4.55057473        2       0.00000000      -0.00346519       0.00672106       0.02712849
Pd       8.14397969       6.26873220       4.53045932        2       0.00000000      -0.00109468       0.00328209      -0.02631720
Pd      -0.00189872       0.00919187       6.93426484        3       0.00000000      -0.00286095       0.02853013       0.02145171
Pd       2.71696216       0.00096445       6.82257420        3       0.00000000      -0.00114207      -0.00275616      -0.02284627
Pd       5.41617955       0.00326319       6.82123143        3       0.00000000      -0.00144048      -0.00251451      -0.02139824
Pd       1.36208241       2.35721016       6.79932508        3       0.00000000       0.00310530      -0.00494297       0.00218343
Pd       4.06748248       2.35250396       6.80380592        3       0.00000000      -0.00097945      -0.00423108       0.00863302
Pd       6.77144007       2.35960285       6.79951308        3       0.00000000      -0.00416239      -0.00303117      -0.00163805
Pd       2.70473648       4.69091342       6.81810811        3       0.00000000       0.00971414      -0.00613463      -0.02681787
Pd       5.42860456       4.69232119       6.83397150        3       0.00000000      -0.00992591      -0.00448748      -0.02414460
Pd       8.13922750       4.70331365       6.80334530        3       0.00000000       0.00056247      -0.00286305       0.00632370
O        0.05244835       0.31251158       8.89762010        0       0.00000000      -0.01743862      -0.05611166       0.05514684
O        0.09747293      -0.96850580       9.53769266        0       0.00000000       0.06184857       0.05717227      -0.04774826
H        0.78774741      -0.77459568      10.21322635        0       0.00000000      -0.02740478      -0.04275483      -0.01712127
