39
Lattice="8.143282129841092 -3.9719248023175796e-16 4.2043796269772325e-15 4.071641064920545 7.05228919462624 1.1826840171501552e-15 0.0 0.0 21.817084989057776" Properties=species:S:1:pos:R:3:tags:I:1:initial_magmoms:R:1:forces:R:3 stress="-0.002546983357958211 7.20358205180367e-05 7.332521551511355e-05 7.20358205180367e-05 -0.0033823909841901832 0.0004175191911234929 7.332521551511355e-05 0.0004175191911234929 -0.00148507197325657" energy=-211.54472455926884 pbc="T T T"
Pd      -0.00000000       0.00000000       0.00000000        0       0.00000000      -0.00276363      -0.00040679      -0.11174384
Pd       2.71442738      -0.00000000       0.00000000        0       0.00000000       0.00140108      -0.00018494      -0.11185332
Pd       5.42885475      -0.00000000       0.00000000        0       0.00000000      -0.00003657      -0.00318426      -0.10730221
Pd       1.35721369       2.35076306       0.00000000        0       0.00000000      -0.00035553       0.00062508      -0.11295000
Pd       4.07164106       2.35076306       0.00000000        0       0.00000000      -0.00078071       0.00049807      -0.10771105
Pd       6.78606844       2.35076306       0.00000000        0       0.00000000      -0.00009189       0.00041781      -0.10700673
Pd       2.71442738       4.70152613       0.00000000        0       0.00000000       0.00017496       0.00074801      -0.11163544
Pd       5.42885475       4.70152613       0.00000000        0       0.00000000      -0.00043702      -0.00271644      -0.11208166
Pd       8.14328213       4.70152613       0.00000000        0       0.00000000      -0.00070900       0.00056259      -0.11181627
Pd       1.35721369       0.78358769       2.26968927        1       0.00000000       0.00808559      -0.00280770       0.09842867
Pd       4.07164106       0.78358769       2.26968927        1       0.00000000       0.00405022      -0.03157202       0.13139194
Pd       6.78606844       0.78358769       2.26968927        1       0.00000000       0.00539087      -0.03288054       0.12281714
Pd       2.71442738       3.13435075       2.26968927        1       0.00000000       0.02012311      -0.00009015       0.07050786
Pd       5.42885475       3.13435075       2.26968927        1       0.00000000       0.00555725       0.00677829       0.10201196
Pd       8.14328213       3.13435075       2.26968927        1       0.00000000      -0.01065043       0.00018110       0.06784905
Pd       4.07164106       5.48511382       2.26968927        1       0.00000000      -0.03822140       0.01246038       0.15698945
Pd       6.78606844       5.48511382       2.26968927        1       0.00000000       0.04497827       0.01011592       0.15745028
Pd       9.50049582       5.48511382       2.26968927        1       0.00000000       0.00432818       0.06113615       0.11646573
Pd       0.00598696       1.56153181       4.52735764        2       0.00000000      -0.00846810       0.01080533       0.00249759
Pd       2.72258469       1.56338947       4.52932872        2       0.00000000      -0.00385483       0.00266882      -0.00339769
Pd       5.43643542       1.56970406       4.52375102        2       0.00000000      -0.00797327       0.00737102       0.00750404
Pd       1.36272370       3.93736030       4.50489456        2       0.00000000      -0.00226122      -0.00439609       0.01616461
Pd       4.07634210       3.91979197       4.53128228        2       0.00000000      -0.00250474       0.00853766      -0.01339324
Pd       6.79577241       3.91834450       4.53125879        2       0.00000000      -0.00715503       0.01067261      -0.01865021
Pd       2.72985796       6.28251814       4.56457525        2       0.00000000       0.00210705       0.00723847      -0.01063039
Pd       5.43438323       6.26702711       4.52715311        2       0.00000000      -0.00047030       0.01299890       0.03974059
Pd       8.13619553       6.28256212       4.56411455        2       0.00000000      -0.00131930       0.00403030       0.00222804
Pd      -0.01856825      -0.01020823       6.88985799        3       0.00000000       0.01199811       0.01086962       0.02403267
Pd       2.73172476       0.00129538       6.90300385        3       0.00000000       0.01309154       0.00551729       0.01625793
Pd       5.43340023       0.01034780       6.82064839        3       0.00000000       0.00910193      -0.01128633      -0.01470348
Pd       1.36558244       2.38561808       6.75138612        3       0.00000000      -0.00003092      -0.02029079       0.01422691
Pd       4.08558922       2.35414097       6.80426845        3       0.00000000      -0.00231535       0.00928318      -0.00264066
Pd       6.79480096       2.35098514       6.80521247        3       0.00000000      -0.01987115       0.01142191      -0.00937547
Pd       2.71636702       4.69323916       6.81751772        3       0.00000000      -0.00707769      -0.00427114      -0.02010742
Pd       5.44391687       4.67866436       6.81120096        3       0.00000000      -0.00568441       0.01843811      -0.01851624
Pd       8.15385432       4.69920597       6.82345550        3       0.00000000      -0.00317484      -0.01526076      -0.01930902
O        1.33630320       0.17789542       8.49743802        0       0.00000000       0.00824087       0.05188196       0.05968709
O        1.42612887      -1.01744010       9.34787861        0       0.00000000      -0.05343319      -0.05034107      -0.05474817
H        2.13630233      -0.68919809       9.93886818        0       0.00000000       0.04101149      -0.08556958      -0.02667907
