39
Lattice="8.143282129841092 -3.9719248023175796e-16 4.2043796269772325e-15 4.071641064920545 7.05228919462624 1.1826840171501552e-15 0.0 0.0 21.817084989057776" Properties=species:S:1:pos:R:3:tags:I:1:initial_magmoms:R:1:forces:R:3 stress="-0.0023847868082344653 7.669165979327427e-05 9.714716783802258e-05 7.669165979327427e-05 -0.003868078467986452 0.00107329819171991 9.714716783802258e-05 0.00107329819171991 -0.001790812057345251" energy=-211.44445837741478 pbc="T T T"
Pd      -0.00000000       0.00000000       0.00000000        0       0.00000000      -0.00224843      -0.00245004      -0.11060322
Pd       2.71442738      -0.00000000       0.00000000        0       0.00000000       0.00158030      -0.00259641      -0.11081873
Pd       5.42885475      -0.00000000       0.00000000        0       0.00000000      -0.00015196      -0.00418095      -0.10655388
Pd       1.35721369       2.35076306       0.00000000        0       0.00000000      -0.00032231      -0.00052339      -0.11463398
Pd       4.07164106       2.35076306       0.00000000        0       0.00000000      -0.00028255      -0.00071716      -0.10891355
Pd       6.78606844       2.35076306       0.00000000        0       0.00000000      -0.00021714      -0.00096030      -0.10809472
Pd       2.71442738       4.70152613       0.00000000        0       0.00000000      -0.00003506      -0.00011421      -0.11204962
Pd       5.42885475       4.70152613       0.00000000        0       0.00000000      -0.00035456      -0.00296142      -0.11140967
Pd       8.14328213       4.70152613       0.00000000        0       0.00000000      -0.00039630      -0.00016008      -0.11192305
Pd       1.35721369       0.78358769       2.26968927        1       0.00000000       0.00142738      -0.00763904       0.10150455
Pd       4.07164106       0.78358769       2.26968927        1       0.00000000       0.00681153      -0.02954837       0.12307175
Pd       6.78606844       0.78358769       2.26968927        1       0.00000000      -0.00024437      -0.02451147       0.11306955
Pd       2.71442738       3.13435075       2.26968927        1       0.00000000       0.01304554       0.01561910       0.05206512
Pd       5.42885475       3.13435075       2.26968927        1       0.00000000       0.00398042       0.01770349       0.07618998
Pd       8.14328213       3.13435075       2.26968927        1       0.00000000      -0.00827097       0.01750583       0.05321967
Pd       4.07164106       5.48511382       2.26968927        1       0.00000000      -0.02110858       0.04964631       0.16080146
Pd       6.78606844       5.48511382       2.26968927        1       0.00000000       0.03061825       0.05051103       0.16736384
Pd       9.50049582       5.48511382       2.26968927        1       0.00000000       0.00179913       0.08848526       0.11648788
Pd       0.00080296       1.58402698       4.52413988        2       0.00000000       0.00394945       0.00061166       0.00497455
Pd       2.72194508       1.58231019       4.52379707        2       0.00000000      -0.00358244       0.00386849       0.00756194
Pd       5.43325097       1.59124919       4.52111674        2       0.00000000       0.00135434       0.00156617      -0.00018244
Pd       1.36166283       3.95732674       4.50320180        2       0.00000000      -0.00182564       0.01176379      -0.00534607
Pd       4.07339633       3.94107013       4.52320662        2       0.00000000      -0.00108809      -0.00073777       0.00182415
Pd       6.79202486       3.94172238       4.52382749        2       0.00000000       0.00128277      -0.00121685       0.00348153
Pd       2.73236316       6.30498322       4.56469879        2       0.00000000      -0.00041804       0.00471604       0.00411222
Pd       5.43414008       6.29367038       4.54327420        2       0.00000000      -0.00344653      -0.00177199       0.00402618
Pd       8.13425797       6.30413615       4.56869574        2       0.00000000      -0.00680856       0.00741624       0.00086632
Pd      -0.01727271       0.02893171       6.91121146        3       0.00000000      -0.00139008       0.00376621       0.00932541
Pd       2.74220683       0.03257641       6.92725315        3       0.00000000      -0.00957721       0.00908833       0.00228067
Pd       5.43797695       0.04300260       6.81615597        3       0.00000000      -0.00457298      -0.00209594      -0.00103503
Pd       1.36749665       2.42928333       6.73363095        3       0.00000000      -0.00109967       0.01041575       0.00130022
Pd       4.08535007       2.39018693       6.80036639        3       0.00000000       0.00231415      -0.00174658      -0.00007288
Pd       6.78837253       2.39005553       6.80114335        3       0.00000000      -0.00046423      -0.00221366       0.00279516
Pd       2.72100096       4.73018984       6.81097745        3       0.00000000       0.00180179       0.00503023       0.00296018
Pd       5.43727646       4.71998823       6.80512015        3       0.00000000       0.00072358      -0.00724434      -0.00498473
Pd       8.15189035       4.72838077       6.81183517        3       0.00000000      -0.00342195       0.00944796       0.00303769
O        1.35363841       0.46414194       8.47830206        0       0.00000000       0.00750780      -0.05138742       0.00839098
O        1.41872923      -0.48178856       9.58912064        0       0.00000000       0.04286179      -0.08567777      -0.02525582
H        2.07923042       0.00013643      10.12987125        0       0.00000000      -0.04973056      -0.07670677       0.01116639
