39
Lattice="8.143282129841092 -3.9719248023175796e-16 4.2043796269772325e-15 4.071641064920545 7.05228919462624 1.1826840171501552e-15 0.0 0.0 21.817084989057776" Properties=species:S:1:pos:R:3:tags:I:1:initial_magmoms:R:1:forces:R:3 stress="-0.002851806950521278 7.069185123074834e-05 0.00015646162329757815 7.069185123074834e-05 -0.0030736807675692014 0.0005219042350120093 0.00015646162329757815 0.0005219042350120093 -0.0019253674465721134" energy=-211.28771082082764 pbc="T T T"
Pd      -0.00000000       0.00000000       0.00000000        0       0.00000000      -0.00038841      -0.00176848      -0.10988815
Pd       2.71442738      -0.00000000       0.00000000        0       0.00000000      -0.00030664      -0.00235512      -0.10841707
Pd       5.42885475      -0.00000000       0.00000000        0       0.00000000      -0.00026490      -0.00187037      -0.11083950
Pd       1.35721369       2.35076306       0.00000000        0       0.00000000      -0.00120054      -0.00025805      -0.11236068
Pd       4.07164106       2.35076306       0.00000000        0       0.00000000       0.00043496      -0.00041970      -0.11356209
Pd       6.78606844       2.35076306       0.00000000        0       0.00000000      -0.00004854      -0.00183008      -0.10673622
Pd       2.71442738       4.70152613       0.00000000        0       0.00000000      -0.00059720      -0.00075698      -0.11296960
Pd       5.42885475       4.70152613       0.00000000        0       0.00000000      -0.00087769       0.00019096      -0.10854456
Pd       8.14328213       4.70152613       0.00000000        0       0.00000000       0.00062823       0.00002486      -0.10818817
Pd       1.35721369       0.78358769       2.26968927        1       0.00000000       0.00785249      -0.01714691       0.13782451
Pd       4.07164106       0.78358769       2.26968927        1       0.00000000      -0.00689215      -0.02093817       0.12678480
Pd       6.78606844       0.78358769       2.26968927        1       0.00000000       0.01043976       0.01031232       0.05956506
Pd       2.71442738       3.13435075       2.26968927        1       0.00000000      -0.00490526       0.02247887       0.10108060
Pd       5.42885475       3.13435075       2.26968927        1       0.00000000       0.00336276       0.01311660       0.06545202
Pd       8.14328213       3.13435075       2.26968927        1       0.00000000       0.01174910       0.00916641       0.08558649
Pd       4.07164106       5.48511382       2.26968927        1       0.00000000       0.02653060       0.03366460       0.09549072
Pd       6.78606844       5.48511382       2.26968927        1       0.00000000       0.00088124       0.04455043       0.15447884
Pd       9.50049582       5.48511382       2.26968927        1       0.00000000      -0.01714486       0.02189121       0.10773864
Pd       0.00642398       1.58127976       4.52915561        2       0.00000000      -0.00124105       0.00223103      -0.00353726
Pd       2.71729006       1.58596104       4.53189762        2       0.00000000      -0.00028027      -0.01396242      -0.01800370
Pd       5.43479355       1.57951234       4.52027718        2       0.00000000       0.00177982       0.00201380       0.00121485
Pd       1.36025577       3.93404442       4.53050730        2       0.00000000       0.00241901      -0.01419142       0.00299888
Pd       4.07833609       3.93832677       4.52149421        2       0.00000000      -0.00247160      -0.01429185       0.00685449
Pd       6.79056969       3.93260233       4.52305800        2       0.00000000       0.00039758       0.00563597       0.02195441
Pd       2.71936015       6.28428183       4.51768411        2       0.00000000       0.00061782      -0.00001821       0.01779948
Pd       5.44407781       6.29251795       4.55614426        2       0.00000000       0.01271709      -0.00751615       0.00573433
Pd       8.13761989       6.29111870       4.55328833        2       0.00000000      -0.01223358      -0.00671970       0.01222329
Pd      -0.00234979       0.01779720       6.81879821        3       0.00000000      -0.00092297      -0.01369600      -0.01440873
Pd       2.72943557       0.02411425       6.92225261        3       0.00000000       0.00733843      -0.05682280      -0.00862235
Pd       5.44635965       0.01768571       6.81649277        3       0.00000000      -0.00466259      -0.00822648      -0.00754872
Pd       1.34466215       2.38497497       6.82578509        3       0.00000000      -0.02851877       0.02955963      -0.00844760
Pd       4.10750415       2.38731543       6.79180839        3       0.00000000       0.01024889       0.01459749       0.02326468
Pd       6.79378995       2.37084789       6.80177126        3       0.00000000      -0.00021789       0.01279104      -0.00468130
Pd       2.72304707       4.72224062       6.80332445        3       0.00000000      -0.00283431       0.01788379      -0.00501637
Pd       5.43795914       4.71699841       6.80841143        3       0.00000000       0.00639943       0.01815980      -0.00935857
Pd       8.15126990       4.71541654       6.80857739        3       0.00000000      -0.00579943       0.01981234      -0.00755120
O        2.68319652       1.32158367       8.54189998        0       0.00000000      -0.00050209      -0.00839122       0.04598892
O        2.69126519       0.56526617       9.78036373        0       0.00000000       0.07254580      -0.05679967       0.00389253
H        3.55140895       0.86617371      10.14303940        0       0.00000000      -0.08403226      -0.03010138       0.00275430
