38
Lattice="7.4846239402392785 2.4779678226937893e-34 0.0 3.742311970119648 6.481874470020422 0.0 0.0 0.0 20.98755986535968" Properties=species:S:1:pos:R:3:tags:I:1:initial_magmoms:R:1:forces:R:3 energy=-195.9806810156935 free_energy=-195.9806810156935 stress="0.011597882799418912 -0.00014529845153825156 0.0007429455632481307 -0.00014529845153825156 0.01164818947767038 0.00020825443272934086 0.0007429455632481307 0.00020825443272934086 -0.008904169070972544" pbc="T T T"
Ni       0.00000000      -0.00000000       0.10000000        0       1.00000000      -0.00347080       0.00327726      -0.26614935
Ni       2.49487465      -0.00000000       0.10000000        0       1.00000000       0.00181044       0.00067483      -0.27535305
Ni       4.98974929       0.00000000       0.10000000        0       1.00000000       0.00041301      -0.00303235      -0.24965151
Ni       1.24743732       2.16062482       0.10000000        0       1.00000000      -0.00221945       0.00023690      -0.25915537
Ni       3.74231197       2.16062482       0.10000000        0       1.00000000       0.00260855       0.00055660      -0.26051393
Ni       6.23718662       2.16062482       0.10000000        0       1.00000000      -0.00167048       0.00043114      -0.25484484
Ni       2.49487465       4.32124965       0.10000000        0       1.00000000       0.00052593       0.00164665      -0.25342780
Ni       4.98974929       4.32124965       0.10000000        0       1.00000000       0.00079448      -0.00535421      -0.26621781
Ni       7.48462394       4.32124965       0.10000000        0       1.00000000      -0.00390314       0.00105686      -0.24979204
Ni       1.24743732       0.72020827       2.05723380        1       1.00000000      -0.02687561       0.10153219       0.06763231
Ni       3.74231197       0.72020827       2.05723380        1       1.00000000       0.03934775      -0.03490554       0.08143592
Ni       6.23718662       0.72020827       2.05723380        1       1.00000000      -0.01353835      -0.04369414       0.16130805
Ni       2.49487465       2.88083310       2.05723380        1       1.00000000       0.02473466       0.07605142       0.08087708
Ni       4.98974929       2.88083310       2.05723380        1       1.00000000      -0.00256151      -0.01828867       0.16028771
Ni       7.48462394       2.88083310       2.05723380        1       1.00000000      -0.03592348       0.00525424       0.17021509
Ni       3.74231197       5.04145792       2.05723380        1       1.00000000      -0.10659062      -0.03721977       0.05561474
Ni       6.23718662       5.04145792       2.05723380        1       1.00000000       0.02092329      -0.02563024       0.07189376
Ni       8.73206126       5.04145792       2.05723380        1       1.00000000       0.03653552      -0.04183304       0.17029097
Ni      -0.02824850       1.43498394       4.08324666        2       1.00000000       0.12270905       0.05638908       0.02171691
Ni       2.51751824       1.45571118       4.04409121        2       1.00000000      -0.13258807      -0.11262259       0.16484931
Ni       4.98749685       1.42982864       4.07224308        2       1.00000000      -0.03009783       0.07982554      -0.04544890
Ni       1.24357416       3.55528425       4.07278326        2       1.00000000       0.00662979       0.17795203       0.07359804
Ni       3.76312532       3.61881084       4.08471529        2       1.00000000      -0.10363768      -0.07748336       0.01222786
Ni       6.21365941       3.61771347       4.08141506        2       1.00000000       0.05412886      -0.05510141       0.02294633
Ni       2.50798882       5.75655006       4.10573989        2       1.00000000      -0.10743240      -0.00342844      -0.23284548
Ni       4.96022580       5.77462684       4.01685303        2       1.00000000       0.16332049      -0.01814504       0.24054344
Ni       7.47302386       5.74804703       4.06782524        2       1.00000000      -0.00629963       0.05640049      -0.06177402
Ni      -0.05386295       0.00769080       6.09302027        3       1.00000000      -0.40528488       0.03963745       0.30492160
Ni       2.46606993      -0.00033070       6.01184041        3       1.00000000       0.83557115       0.08223220       0.15147626
Ni       4.97510281      -0.00875106       6.01236300        3       1.00000000      -0.03775743       0.12181464       0.31887413
Ni       1.23959175       2.13585165       6.08852307        3       1.00000000      -0.01449006       0.50549175      -0.06341495
Ni       3.74105087       2.19283269       6.04464878        3       1.00000000       0.06945804      -0.02843497       0.04181070
Ni       6.20263922       2.19282476       6.04988818        3       1.00000000      -0.04040566      -0.02189439       0.06506548
Ni       2.46591806       4.31099612       6.04207997        3       1.00000000      -0.01194407      -0.08251296       0.16665526
Ni       4.97564654       4.37745151       6.10772421        3       1.00000000      -0.01734866      -0.61946437      -0.12309354
Ni       7.49141757       4.30363178       6.03448540        3       1.00000000       0.02445938      -0.03576487       0.13248282
O        1.38913155      -0.00758866       7.52343372        0       1.00000000       0.47079153      -0.04635490       0.77310113
H        2.01596994       0.00800215       8.31183622        0       1.00000000      -0.77072212       0.00070400      -0.64814230
