38
Lattice="7.4846239402392785 2.4779678226937893e-34 0.0 3.742311970119648 6.481874470020422 0.0 0.0 0.0 20.98755986535968" Properties=species:S:1:pos:R:3:tags:I:1:initial_magmoms:R:1:forces:R:3 energy=-194.775830268586 free_energy=-194.775830268586 stress="0.009838211508073139 0.00011880714182934692 0.0002079515433864019 0.00011880714182934692 0.010647358882679857 -9.037832018637017e-05 0.0002079515433864019 -9.037832018637017e-05 -0.016022174140719343" pbc="T T T"
Ni       0.00000000      -0.00000000       0.10000000        0       1.00000000      -0.00044620      -0.00021997      -0.28803803
Ni       2.49487465      -0.00000000       0.10000000        0       1.00000000       0.00260137       0.00319987      -0.26034533
Ni       4.98974929       0.00000000       0.10000000        0       1.00000000      -0.00242115       0.00540805      -0.26387162
Ni       1.24743732       2.16062482       0.10000000        0       1.00000000       0.00469762       0.00156049      -0.26155842
Ni       3.74231197       2.16062482       0.10000000        0       1.00000000      -0.00022976      -0.00023181      -0.24097748
Ni       6.23718662       2.16062482       0.10000000        0       1.00000000      -0.00552267      -0.00091736      -0.26032379
Ni       2.49487465       4.32124965       0.10000000        0       1.00000000       0.00190657      -0.00492860      -0.26375325
Ni       4.98974929       4.32124965       0.10000000        0       1.00000000      -0.00242790      -0.00392869      -0.26047113
Ni       7.48462394       4.32124965       0.10000000        0       1.00000000      -0.00018008      -0.00021520      -0.29212155
Ni       1.24743732       0.72020827       2.05723380        1       1.00000000       0.06239774       0.03748932       0.00999028
Ni       3.74231197       0.72020827       2.05723380        1       1.00000000      -0.00083119       0.01022890       0.22357165
Ni       6.23718662       0.72020827       2.05723380        1       1.00000000      -0.06969262       0.03902341      -0.01695813
Ni       2.49487465       2.88083310       2.05723380        1       1.00000000       0.00628425      -0.00298318       0.21567014
Ni       4.98974929       2.88083310       2.05723380        1       1.00000000      -0.00881529      -0.00462403       0.22590117
Ni       7.48462394       2.88083310       2.05723380        1       1.00000000      -0.00013638       0.26076839      -0.15957097
Ni       3.74231197       5.04145792       2.05723380        1       1.00000000      -0.00486180      -0.07736488      -0.00636027
Ni       6.23718662       5.04145792       2.05723380        1       1.00000000       0.23463947      -0.14074678      -0.17788668
Ni       8.73206126       5.04145792       2.05723380        1       1.00000000      -0.21091356      -0.12815872      -0.15251090
Ni       0.00089759       1.52735909       3.98993284        2       1.00000000       0.01040912      -0.16366853      -0.04093904
Ni       2.49416093       1.44141306       4.09178088        2       1.00000000      -0.01131673      -0.00840260      -0.00641909
Ni       4.98900205       1.44089661       4.09248015        2       1.00000000       0.02032225      -0.00483310       0.01879304
Ni       1.25010697       3.60067563       4.09442730        2       1.00000000       0.01703716       0.01051401      -0.00592556
Ni       3.74200328       3.59963910       4.09237958        2       1.00000000      -0.00263142       0.01104444       0.01198936
Ni       6.23643990       3.59879841       4.09466804        2       1.00000000       0.01031280      -0.02023955      -0.00903144
Ni       2.42124714       5.71854849       3.98995034        2       1.00000000       0.15665387       0.07352764      -0.04637887
Ni       5.06756065       5.71666452       3.98843441        2       1.00000000      -0.13384675       0.08156756      -0.03401195
Ni       7.48812681       5.76090381       4.08939343        2       1.00000000       0.02365037      -0.01567319      -0.04456649
Ni      -0.00023325       0.00236598       5.65383734        3       1.00000000      -0.29687862       0.01492640       1.06473226
Ni       2.52077731      -0.00076726       6.06907291        3       1.00000000       0.16687172      -0.02126032      -0.27178271
Ni       4.96893155      -0.00431893       6.07815759        3       1.00000000      -0.06461454      -0.04161228      -0.13337543
Ni       1.25914537       2.17969255       6.07368516        3       1.00000000       0.02795708       0.07219228      -0.14605672
Ni       3.74168767       2.15982243       6.08336776        3       1.00000000       0.01485978       0.00076734      -0.02218505
Ni       6.23686151       2.17634074       6.08616005        3       1.00000000       0.06142705       0.03790103      -0.04682909
Ni       2.48792906       4.30918023       6.08605022        3       1.00000000      -0.00200471       0.00183544      -0.04658605
Ni       5.00653495       4.30538341       6.07422631        3       1.00000000       0.07985720      -0.03023859      -0.14606068
Ni       7.48401537       4.32292908       6.08731236        3       1.00000000       0.01017902       0.00965448       0.00712573
O       -0.17185060      -0.00088602       7.41760214        0       1.00000000      -0.22042813      -0.00234525       1.07066025
H        0.83512761       0.00056731       7.36495640        0       1.00000000       0.12613507       0.00098355       1.05646182
