38
Lattice="7.31716277299497 -1.5312158836541236e-14 3.502625384595088e-15 3.6585813864974996 6.336848845039428 1.6265961235805369e-15 0.0 0.0 21.04428422323305" Properties=species:S:1:pos:R:3:tags:I:1:initial_magmoms:R:1:forces:R:3 stress="-0.0004883551691750847 1.3109777988193002e-05 3.402034661937214e-05 1.3109777988193002e-05 -0.0005034930368756525 1.9641656278576975e-05 3.402034661937214e-05 1.9641656278576975e-05 -0.0006927721987926034" energy=-209.605395084753 pbc="T T T"
Ni       0.00000000      -0.00000000       0.00000000        0       1.00000000      -0.00072293      -0.00041739      -0.03188636
Ni       2.43905426      -0.00000000       0.00000000        0       1.00000000       0.00077486      -0.00049426      -0.03207935
Ni       4.87810852      -0.00000000       0.00000000        0       1.00000000       0.00003956      -0.00085577      -0.01307950
Ni       1.21952713       2.11228295       0.00000000        0       1.00000000      -0.00004062       0.00091818      -0.03207935
Ni       3.65858139       2.11228295       0.00000000        0       1.00000000       0.00189963       0.00109675      -0.02737498
Ni       6.09763564       2.11228295       0.00000000        0       1.00000000      -0.00175477       0.00103367      -0.02718391
Ni       2.43905426       4.22456590       0.00000000        0       1.00000000      -0.00072134       0.00046214      -0.01307950
Ni       4.87810852       4.22456590       0.00000000        0       1.00000000       0.00001780      -0.00203651      -0.02718391
Ni       7.31716277       4.22456590       0.00000000        0       1.00000000       0.00076168       0.00043976      -0.01289187
Ni       1.21952713       0.70409432       2.01167273        1       1.00000000      -0.00081226      -0.00046896       0.01155495
Ni       3.65858139       0.70409432       2.01167273        1       1.00000000       0.01179450      -0.04183495       0.01640234
Ni       6.09763564       0.70409432       2.01167273        1       1.00000000      -0.00885276      -0.04171455       0.01977635
Ni       2.43905426       2.81637726       2.01167273        1       1.00000000      -0.03033288       0.03113181       0.01640234
Ni       4.87810852       2.81637726       2.01167273        1       1.00000000       0.00080308       0.00046366      -0.00891884
Ni       7.31716277       2.81637726       2.01167273        1       1.00000000       0.03130811       0.02893248       0.01912439
Ni       3.65858139       4.92866021       2.01167273        1       1.00000000      -0.04055224       0.01319056       0.01977635
Ni       6.09763564       4.92866021       2.01167273        1       1.00000000       0.04071032       0.01264738       0.01912439
Ni       8.53668990       4.92866021       2.01167273        1       1.00000000       0.00138477       0.00079950       0.07665322
Ni      -0.00024594       1.40874599       4.02933613        2       1.00000000       0.01835272      -0.01258142       0.04101914
Ni       2.44043108       1.40898354       4.02787120        2       1.00000000      -0.01835081      -0.01059484       0.04828528
Ni       4.87862944       1.40452342       4.03141732        2       1.00000000       0.00116755       0.00666061      -0.02957795
Ni       1.22001855       3.50729313       4.05947283        2       1.00000000      -0.00036432       0.02768247      -0.05399884
Ni       3.65566768       3.52275532       4.03141732        2       1.00000000       0.00635203      -0.00231918      -0.02957795
Ni       6.10156813       3.52274200       4.03145210        2       1.00000000      -0.00628115      -0.00362642      -0.02976655
Ni       2.45131336       5.63983233       4.06010700        2       1.00000000      -0.02412387      -0.01392792      -0.04890917
Ni       4.87846824       5.63226286       4.02933613        2       1.00000000      -0.00171947       0.02218463       0.04101914
Ni       7.30599561       5.63976934       4.05947283        2       1.00000000       0.02379157      -0.01415674      -0.05399884
Ni      -0.05061912      -0.02922496       6.11489350        3       1.00000000       0.03831771       0.02212274       0.06624096
Ni       2.49002559      -0.02845571       6.11045477        3       1.00000000      -0.03350864       0.02185606       0.07424466
Ni       4.87776495       0.00076544       6.04550343        3       1.00000000       0.01349882       0.02038082      -0.00769147
Ni       1.22036943       2.17065327       6.11045477        3       1.00000000       0.00217359      -0.03994736       0.07424466
Ni       3.68283326       2.12628477       6.02511573        3       1.00000000      -0.01704575      -0.00984137      -0.01598772
Ni       6.07688663       2.12593929       6.02534661        3       1.00000000       0.00535608      -0.00819728      -0.01596118
Ni       2.43954537       4.22388564       6.04550343        3       1.00000000       0.02439972       0.00149991      -0.00769147
Ni       4.87956075       4.19976855       6.02534661        3       1.00000000      -0.00442101       0.00873715      -0.01596118
Ni       7.31865981       4.22543021       6.04530043        3       1.00000000      -0.02411626      -0.01392353      -0.00716595
O        1.22369927       0.70650311       7.38151970        0       0.00000000      -0.00843953      -0.00487256       0.05145857
H        1.22974188       0.70999181       8.35738924        0       0.00000000      -0.00074350      -0.00042926      -0.05328089
