38
Lattice="7.4846239402392785 2.4779678226937893e-34 0.0 3.742311970119648 6.481874470020422 0.0 0.0 0.0 20.98755986535968" Properties=species:S:1:pos:R:3:tags:I:1:initial_magmoms:R:1:forces:R:3 energy=-196.27366931239393 free_energy=-196.27366931239393 stress="0.01155430125438289 6.279016241466386e-05 -0.00023793123258135243 6.279016241466386e-05 0.010856682637778005 3.9855016733729796e-05 -0.00023793123258135243 3.9855016733729796e-05 -0.010380674856406943" pbc="T T T"
Ni       0.00000000      -0.00000000       0.10000000        0       1.00000000       0.00159475       0.00205389      -0.26240425
Ni       2.49487465      -0.00000000       0.10000000        0       1.00000000       0.00043723      -0.00272671      -0.26882957
Ni       4.98974929       0.00000000       0.10000000        0       1.00000000      -0.00366466       0.00249245      -0.25849656
Ni       1.24743732       2.16062482       0.10000000        0       1.00000000      -0.00295016       0.00234868      -0.26629772
Ni       3.74231197       2.16062482       0.10000000        0       1.00000000       0.00193463       0.00092816      -0.27007935
Ni       6.23718662       2.16062482       0.10000000        0       1.00000000       0.00017003       0.00122445      -0.25546225
Ni       2.49487465       4.32124965       0.10000000        0       1.00000000      -0.00106412      -0.00433616      -0.26078219
Ni       4.98974929       4.32124965       0.10000000        0       1.00000000       0.00104940      -0.00037403      -0.25898355
Ni       7.48462394       4.32124965       0.10000000        0       1.00000000      -0.00035450      -0.00063795      -0.25802877
Ni       1.24743732       0.72020827       2.05723380        1       1.00000000      -0.08258246      -0.02874153       0.06223155
Ni       3.74231197       0.72020827       2.05723380        1       1.00000000       0.03801234      -0.01927695       0.06729237
Ni       6.23718662       0.72020827       2.05723380        1       1.00000000       0.01810740       0.02940008       0.07829634
Ni       2.49487465       2.88083310       2.05723380        1       1.00000000      -0.01569365       0.05473835       0.06256561
Ni       4.98974929       2.88083310       2.05723380        1       1.00000000       0.02581417       0.01581268       0.09714284
Ni       7.48462394       2.88083310       2.05723380        1       1.00000000      -0.01805804       0.00451137       0.14587933
Ni       3.74231197       5.04145792       2.05723380        1       1.00000000       0.00352669       0.00124842       0.03051869
Ni       6.23718662       5.04145792       2.05723380        1       1.00000000      -0.00601020      -0.03189600       0.10299410
Ni       8.73206126       5.04145792       2.05723380        1       1.00000000      -0.00375854      -0.01952911       0.07081499
Ni       0.00531659       1.45278791       4.08424402        2       1.00000000      -0.02499763      -0.03485648      -0.00358704
Ni       2.48131992       1.43695095       4.02545488        2       1.00000000       0.00037100      -0.01453507       0.11722172
Ni       4.98429469       1.45059883       4.06465700        2       1.00000000       0.00583375      -0.04841188      -0.00021645
Ni       1.24188556       3.59376405       4.07637311        2       1.00000000       0.02823672       0.02424288       0.00720878
Ni       3.74379063       3.59775895       4.06063562        2       1.00000000      -0.04852172       0.02668205      -0.00550886
Ni       6.23524343       3.60113268       4.07943635        2       1.00000000      -0.00689658      -0.00093329      -0.10661143
Ni       2.49555542       5.76632506       4.04369846        2       1.00000000      -0.00558300       0.00229765       0.05350226
Ni       4.99490259       5.75927928       4.06676049        2       1.00000000      -0.03103826       0.00666431       0.03549361
Ni       7.47634762       5.76021511       4.06270770        2       1.00000000       0.02118272       0.01781032       0.03701279
Ni      -0.03460075      -0.01440307       6.02963952        3       1.00000000       0.00738387       0.01268950       0.06903013
Ni       2.48622216      -0.04377497       6.05827453        3       1.00000000       0.02907319       0.11358034       0.56623997
Ni       5.01287021      -0.01251132       6.02623590        3       1.00000000      -0.03561854       0.01192870       0.06084982
Ni       1.21751167       2.20917528       6.09452968        3       1.00000000       0.00060231      -0.07977189       0.33468601
Ni       3.71606737       2.16844579       6.01074193        3       1.00000000       0.09085170      -0.00104006       0.43287873
Ni       6.21876562       2.15947900       6.04713752        3       1.00000000       0.01743648       0.01190577       0.09308799
Ni       2.49055839       4.36108278       6.03121125        3       1.00000000      -0.00971231      -0.00699759       0.06900345
Ni       4.97360699       4.30588428       6.03625711        3       1.00000000       0.01713966       0.01859087       0.10267828
Ni       7.47288586       4.32022010       6.04053552        3       1.00000000      -0.01036369      -0.02125835       0.08811345
O        2.47026533       1.34520834       7.45725351        0       1.00000000       0.10664064      -0.07834315      -0.53440928
H        3.31534881       1.48405446       7.95061027        0       1.00000000      -0.10853061       0.03251526       0.22495447
