38
Lattice="7.4846239402392785 2.4779678226937893e-34 0.0 3.742311970119648 6.481874470020422 0.0 0.0 0.0 20.98755986535968" Properties=species:S:1:pos:R:3:tags:I:1:initial_magmoms:R:1:forces:R:3 energy=-196.2796688340778 free_energy=-196.2796688340778 stress="0.011295505610622232 -0.0002744580175831999 -0.00017700297943420664 -0.0002744580175831999 0.010683195394858782 -2.5494001740262506e-05 -0.00017700297943420664 -2.5494001740262506e-05 -0.010314450867419285" pbc="T T T"
Ni       0.00000000      -0.00000000       0.10000000        0       1.00000000      -0.00152349       0.00021466      -0.26830600
Ni       2.49487465      -0.00000000       0.10000000        0       1.00000000       0.00090436      -0.00076316      -0.27216695
Ni       4.98974929       0.00000000       0.10000000        0       1.00000000       0.00009148       0.00003544      -0.25093592
Ni       1.24743732       2.16062482       0.10000000        0       1.00000000      -0.00109761      -0.00022010      -0.26918224
Ni       3.74231197       2.16062482       0.10000000        0       1.00000000       0.00308214       0.00171640      -0.26490314
Ni       6.23718662       2.16062482       0.10000000        0       1.00000000      -0.00223090       0.00208242      -0.26151840
Ni       2.49487465       4.32124965       0.10000000        0       1.00000000      -0.00131419       0.00085942      -0.25748945
Ni       4.98974929       4.32124965       0.10000000        0       1.00000000       0.00081554      -0.00404826      -0.26456707
Ni       7.48462394       4.32124965       0.10000000        0       1.00000000      -0.00110625      -0.00052548      -0.25026062
Ni       1.24743732       0.72020827       2.05723380        1       1.00000000      -0.01706950       0.00481400       0.06469658
Ni       3.74231197       0.72020827       2.05723380        1       1.00000000       0.04008612      -0.02926498       0.06443910
Ni       6.23718662       0.72020827       2.05723380        1       1.00000000      -0.02396033      -0.03209035       0.10365150
Ni       2.49487465       2.88083310       2.05723380        1       1.00000000      -0.00925290       0.05687047       0.03787054
Ni       4.98974929       2.88083310       2.05723380        1       1.00000000       0.00122353       0.00635012       0.12576964
Ni       7.48462394       2.88083310       2.05723380        1       1.00000000      -0.00072382       0.01782753       0.10025180
Ni       3.74231197       5.04145792       2.05723380        1       1.00000000      -0.07948190      -0.02011400       0.04236776
Ni       6.23718662       5.04145792       2.05723380        1       1.00000000       0.04223695      -0.01945405       0.07412005
Ni       8.73206126       5.04145792       2.05723380        1       1.00000000       0.00746510       0.01685225       0.12135021
Ni      -0.00962904       1.43787999       4.05780970        2       1.00000000       0.05739549      -0.00146161       0.11040286
Ni       2.50217787       1.44983564       4.03672533        2       1.00000000      -0.07195144      -0.01255062       0.12309270
Ni       4.99002592       1.43975678       4.06733790        2       1.00000000      -0.00547870       0.00596805      -0.01181567
Ni       1.24621951       3.58908667       4.07015937        2       1.00000000      -0.02200146       0.04095371       0.01120742
Ni       3.73692229       3.60255928       4.06720278        2       1.00000000      -0.00758937      -0.01497673      -0.00699266
Ni       6.24006754       3.60183120       4.07131728        2       1.00000000      -0.02278464      -0.02029736      -0.02390621
Ni       2.50788102       5.77223253       4.08693092        2       1.00000000      -0.06809721      -0.02759838      -0.04896975
Ni       4.97579257       5.74568250       4.03462092        2       1.00000000       0.01204250       0.04379112       0.15091860
Ni       7.46866367       5.77219806       4.07527224        2       1.00000000       0.07155666      -0.04326857      -0.12759549
Ni      -0.03433764      -0.06220876       6.08900916        3       1.00000000       0.05568192       0.13626861       0.34567002
Ni       2.48562168      -0.02501506       6.00205381        3       1.00000000      -0.00224682       0.08888474       0.44557374
Ni       4.97194224      -0.00735943       6.03790369        3       1.00000000       0.05595078       0.08349454       0.15626493
Ni       1.24846929       2.21436069       6.05807662        3       1.00000000       0.02611428      -0.12484760       0.51105505
Ni       3.76215449       2.16752438       6.04128823        3       1.00000000      -0.03570777      -0.01296070      -0.01256256
Ni       6.20484664       2.16933180       6.04499408        3       1.00000000       0.02511801      -0.01976577      -0.01175103
Ni       2.47967650       4.32586314       6.03686200        3       1.00000000       0.05464824      -0.03968760       0.13491010
Ni       4.98345715       4.27523462       6.04745082        3       1.00000000      -0.00224663       0.04496498      -0.01684382
Ni       7.48074027       4.34083673       6.03138994        3       1.00000000      -0.04591910      -0.11282965       0.15069830
O        1.22744096       0.81842218       7.43643716        0       1.00000000       0.08898902       0.00034066      -0.49379770
H        2.05931195       0.65153261       7.94317484        0       1.00000000      -0.12161809      -0.01556412       0.23925380
