37
Lattice="7.979282652125478 4.014786654423154e-15 4.603398524423124e-16 3.9896413260627424 6.910261480717139 4.2885637721088913e-16 0.0 0.0 21.55037188511455" Properties=species:S:1:pos:R:3:tags:I:1:initial_magmoms:R:1:forces:R:3 stress="0.0007041050118977796 -1.692781598989375e-06 -7.5471026888182835e-06 -1.692781598989375e-06 7.726153887471776e-05 0.0014577614561458565 -7.5471026888182835e-06 0.0014577614561458565 -0.00016219284013392794" energy=-271.82127587845923 pbc="T T T"
Rh      -0.00000000       0.00000000       0.00000000        0       0.00000000       0.00119304       0.00204892      -0.00346453
Rh       2.65976088       0.00000000       0.00000000        0       0.00000000      -0.00122660       0.00204822      -0.00346184
Rh       5.31952177       0.00000000       0.00000000        0       0.00000000      -0.00001871       0.00620130      -0.00386208
Rh       1.32988044       2.30342049       0.00000000        0       0.00000000      -0.00001643      -0.00651561       0.01199502
Rh       3.98964133       2.30342049       0.00000000        0       0.00000000       0.00277572       0.00122866      -0.00260834
Rh       6.64940221       2.30342049       0.00000000        0       0.00000000      -0.00281326       0.00122834      -0.00261725
Rh       2.65976088       4.60684099       0.00000000        0       0.00000000       0.00904747       0.00741588       0.00892656
Rh       5.31952177       4.60684099       0.00000000        0       0.00000000      -0.00001628       0.00330574      -0.00202396
Rh       7.97928265       4.60684099       0.00000000        0       0.00000000      -0.00908740       0.00742009       0.00890970
Rh       1.32988044       0.76780683       2.16825338        1       0.00000000      -0.00023783       0.08643023      -0.02936978
Rh       3.98964133       0.76780683       2.16825338        1       0.00000000       0.00536032       0.04828175      -0.03465501
Rh       6.64940221       0.76780683       2.16825338        1       0.00000000      -0.00596398       0.04830312      -0.03467680
Rh       2.65976088       3.07122732       2.16825338        1       0.00000000       0.04135190       0.02413505       0.03093172
Rh       5.31952177       3.07122732       2.16825338        1       0.00000000      -0.00028104       0.04648751      -0.02855082
Rh       7.97928265       3.07122732       2.16825338        1       0.00000000      -0.04189772       0.02414083       0.03080014
Rh       3.98964133       5.37464782       2.16825338        1       0.00000000      -0.03569033       0.01605972      -0.02320697
Rh       6.64940221       5.37464782       2.16825338        1       0.00000000       0.03515368       0.01609737      -0.02317464
Rh       9.30916309       5.37464782       2.16825338        1       0.00000000      -0.00028312       0.08841249       0.01319231
Rh       0.00011907       1.54742430       4.35963719        2       0.00000000       0.00142391      -0.01658039       0.01015760
Rh       2.65935762       1.54742265       4.35965668        2       0.00000000      -0.00113982      -0.01654896       0.01006634
Rh       5.31937775       1.55719962       4.33928927        2       0.00000000       0.00016787      -0.01955981       0.00324035
Rh       1.32973314       3.86074171       4.33725230        2       0.00000000       0.00018956      -0.01891531       0.00453810
Rh       3.99956427       3.86651871       4.36395649        2       0.00000000      -0.01007472      -0.01575084      -0.01432575
Rh       6.63918716       3.86652371       4.36395058        2       0.00000000       0.01038546      -0.01580158      -0.01427907
Rh       2.66888815       6.16822309       4.35987456        2       0.00000000       0.00044749      -0.00839902       0.01012651
Rh       5.31938666       6.16146481       4.32136240        2       0.00000000       0.00014046       0.00172327       0.00483157
Rh       7.96986099       6.16822984       4.35988996        2       0.00000000      -0.00007189      -0.00843624       0.01006478
Rh      -0.03485523       0.05512430       6.57394315        3       0.00000000       0.01250479      -0.02860497       0.01944739
Rh       2.69423986       0.05513206       6.57399823        3       0.00000000      -0.01256839      -0.02874967       0.01930801
Rh       5.31932477       0.03742317       6.51268598        3       0.00000000       0.00015773      -0.02031995       0.00677256
Rh       1.32967910       2.36275108       6.49972240        3       0.00000000       0.00013733      -0.02838190       0.01062668
Rh       3.99403708       2.33839446       6.51346408        3       0.00000000      -0.01363731      -0.04429773       0.00947727
Rh       6.64460771       2.33839191       6.51344935        3       0.00000000       0.01393872      -0.04429991       0.00953184
Rh       2.63859619       4.62870521       6.50194616        3       0.00000000      -0.00472777      -0.01736996       0.00782537
Rh       5.31932460       4.60725547       6.58579535        3       0.00000000       0.00011187      -0.00113602      -0.00908071
Rh       8.00004236       4.62870477       6.50195706        3       0.00000000       0.00505548      -0.01738633       0.00778564
O        1.32964562      -0.71524017       7.80025947        0       0.00000000       0.00020979      -0.07391430      -0.01919792
