37
Lattice="7.979282652125478 4.014786654423154e-15 4.603398524423124e-16 3.9896413260627424 6.910261480717139 4.2885637721088913e-16 0.0 0.0 21.55037188511455" Properties=species:S:1:pos:R:3:tags:I:1:initial_magmoms:R:1:forces:R:3 stress="0.0011772843250478452 3.757037998447251e-16 1.9614965077660677e-16 3.757037998447251e-16 0.0011772843250483118 6.74431053591322e-17 1.9614965077660677e-16 6.74431053591322e-17 0.00333325113287345" energy=-270.22432777579536 pbc="T T T"
Rh      -0.00000000       0.00000000       0.00000000        0       0.00000000      -0.00000000       0.00000000       0.01942336
Rh       2.65976088       0.00000000       0.00000000        0       0.00000000      -0.00274773       0.00203075       0.01439530
Rh       5.31952177       0.00000000       0.00000000        0       0.00000000       0.00274773       0.00203075       0.01439530
Rh       1.32988044       2.30342049       0.00000000        0       0.00000000       0.00038482      -0.00339498       0.01439530
Rh       3.98964133       2.30342049       0.00000000        0       0.00000000       0.00000000       0.00000000       0.01873006
Rh       6.64940221       2.30342049       0.00000000        0       0.00000000      -0.00038482      -0.00339498       0.01439530
Rh       2.65976088       4.60684099       0.00000000        0       0.00000000       0.00313255       0.00136423       0.01439530
Rh       5.31952177       4.60684099       0.00000000        0       0.00000000      -0.00313255       0.00136423       0.01439530
Rh       7.97928265       4.60684099       0.00000000        0       0.00000000       0.00000000      -0.00000000       0.04718211
Rh       1.32988044       0.76780683       2.16825338        1       0.00000000      -0.00885950      -0.00511503       0.08748326
Rh       3.98964133       0.76780683       2.16825338        1       0.00000000      -0.00000000      -0.00221318       0.05966541
Rh       6.64940221       0.76780683       2.16825338        1       0.00000000       0.00885950      -0.00511503       0.08748326
Rh       2.65976088       3.07122732       2.16825338        1       0.00000000      -0.00191667       0.00110659       0.05966541
Rh       5.31952177       3.07122732       2.16825338        1       0.00000000       0.00191667       0.00110659       0.05966541
Rh       7.97928265       3.07122732       2.16825338        1       0.00000000       0.00000000      -0.01386490       0.10438483
Rh       3.98964133       5.37464782       2.16825338        1       0.00000000      -0.00000000       0.01023007       0.08748326
Rh       6.64940221       5.37464782       2.16825338        1       0.00000000      -0.01200736       0.00693245       0.10438483
Rh       9.30916309       5.37464782       2.16825338        1       0.00000000       0.01200736       0.00693245       0.10438483
Rh      -0.00000000       1.52862711       4.37891168        2       0.00000000      -0.00000000      -0.03492995       0.05012558
Rh       2.65970565       1.53558178       4.36571224        2       0.00000000      -0.00071900      -0.00041511      -0.07494143
Rh       5.31957700       1.53558178       4.36571224        2       0.00000000       0.00071900      -0.00041511      -0.07494143
Rh       1.33098648       3.83839558       4.37086107        2       0.00000000      -0.00530204       0.00306113      -0.06223224
Rh       3.98964133       3.83909793       4.36571224        2       0.00000000       0.00000000       0.00083023      -0.07494143
Rh       6.64829617       3.83839558       4.37086107        2       0.00000000       0.00530204       0.00306113      -0.06223224
Rh       2.66581142       6.14594793       4.37891168        2       0.00000000       0.03025022       0.01746497       0.05012558
Rh       5.31347123       6.14594793       4.37891168        2       0.00000000      -0.03025022       0.01746497       0.05012558
Rh       7.97928265       6.14373180       4.37086107        2       0.00000000      -0.00000000      -0.00612227      -0.06223224
Rh      -0.00000000       0.00000000       6.65954510        3       0.00000000      -0.00000000      -0.00000000       0.06104029
Rh       2.67093657       0.00065383       6.53449660        3       0.00000000       0.02672684       0.00744251      -0.09250268
Rh       5.30834608       0.00065383       6.53449660        3       0.00000000      -0.02672684       0.00744251      -0.09250268
Rh       1.33603452       2.31277200       6.53449660        3       0.00000000       0.01980882       0.01942486      -0.09250268
Rh       3.98964133       2.30342049       6.53370324        3       0.00000000      -0.00000000       0.00000000      -0.08475246
Rh       6.64324813       2.31277200       6.53449660        3       0.00000000      -0.01980882       0.01942486      -0.09250268
Rh       2.65473928       4.59683565       6.53449660        3       0.00000000      -0.00691801      -0.02686738      -0.09250268
Rh       5.32454337       4.59683565       6.53449660        3       0.00000000       0.00691801      -0.02686738      -0.09250268
Rh       7.97928265       4.60684099       6.53691807        3       0.00000000      -0.00000000      -0.00000000      -0.06846546
O       -0.00000000      -0.00000000       8.44736544        0       0.00000000       0.00000000       0.00000000      -0.01796985
