37
Lattice="7.979282652125478 4.014786654423154e-15 4.603398524423124e-16 3.9896413260627424 6.910261480717139 4.2885637721088913e-16 0.0 0.0 21.55037188511455" Properties=species:S:1:pos:R:3:tags:I:1:initial_magmoms:R:1:forces:R:3 stress="0.0002493711394692122 1.293219038235481e-06 3.4984554966756388e-06 1.293219038235481e-06 0.0002478778587499623 2.01983422253048e-06 3.4984554966756388e-06 2.01983422253048e-06 -0.0001656377275206511" energy=-271.8262273123774 pbc="T T T"
Rh      -0.00000000       0.00000000       0.00000000        0       0.00000000       0.00845440       0.00488115       0.00773151
Rh       2.65976088       0.00000000       0.00000000        0       0.00000000       0.00000981       0.00035588      -0.00125015
Rh       5.31952177       0.00000000       0.00000000        0       0.00000000      -0.00843557       0.00488421       0.00772932
Rh       1.32988044       2.30342049       0.00000000        0       0.00000000       0.00031311      -0.00016944      -0.00125015
Rh       3.98964133       2.30342049       0.00000000        0       0.00000000      -0.00028339      -0.00016362      -0.00124461
Rh       6.64940221       2.30342049       0.00000000        0       0.00000000       0.00001374       0.00377163      -0.00066679
Rh       2.65976088       4.60684099       0.00000000        0       0.00000000       0.00001207      -0.00974752       0.00772932
Rh       5.31952177       4.60684099       0.00000000        0       0.00000000       0.00327320      -0.00187392      -0.00066679
Rh       7.97928265       4.60684099       0.00000000        0       0.00000000      -0.00324547      -0.00187377      -0.00065575
Rh       1.32988044       0.76780683       2.16825338        1       0.00000000      -0.04142434      -0.02391635      -0.02332491
Rh       3.98964133       0.76780683       2.16825338        1       0.00000000       0.04180190      -0.02394646      -0.02336741
Rh       6.64940221       0.76780683       2.16825338        1       0.00000000       0.00018275       0.04499468       0.02982999
Rh       2.65976088       3.07122732       2.16825338        1       0.00000000       0.00016271       0.04817474      -0.02336741
Rh       5.31952177       3.07122732       2.16825338        1       0.00000000       0.00688425       0.00397462      -0.01777695
Rh       7.97928265       3.07122732       2.16825338        1       0.00000000      -0.00644241       0.00395777      -0.01775665
Rh       3.98964133       5.37464782       2.16825338        1       0.00000000       0.03905791      -0.02233908       0.02982999
Rh       6.64940221       5.37464782       2.16825338        1       0.00000000       0.00020632      -0.00755818      -0.01775665
Rh       9.30916309       5.37464782       2.16825338        1       0.00000000      -0.03868475      -0.02233465       0.02990737
Rh       0.00746581       1.53972305       4.36187471        2       0.00000000       0.00741092       0.00314749      -0.00832299
Rh       2.65985541       1.53566824       4.31929040        2       0.00000000      -0.00024717      -0.00014270      -0.00485679
Rh       5.31224136       1.53972973       4.36187248        2       0.00000000      -0.00779271       0.00312660      -0.00822849
Rh       1.33016081       3.83068276       4.36188861        2       0.00000000       0.00087086      -0.00826688      -0.00838370
Rh       3.98956574       3.83067110       4.36187248        2       0.00000000      -0.00118864      -0.00831198      -0.00822849
Rh       6.64950859       3.83909558       4.34241736        2       0.00000000      -0.00014756      -0.00008520      -0.00371282
Rh       2.65985821       6.14251084       4.33851813        2       0.00000000      -0.00010764      -0.00006214       0.00460985
Rh       5.32681351       6.14686554       4.36187471        2       0.00000000       0.00643127       0.00484429      -0.00832299
Rh       7.97219032       6.14687316       4.36188861        2       0.00000000      -0.00672389       0.00488763      -0.00838370
Rh      -0.02214053      -0.01278284       6.50603631        3       0.00000000       0.00727188       0.00419842      -0.01979230
Rh       2.65987413      -0.04262583       6.56694605        3       0.00000000      -0.00013376       0.03706184       0.04497560
Rh       5.34195537      -0.01276007       6.50602573        3       0.00000000      -0.00791942       0.00404788      -0.01966990
Rh       1.29302202       2.32483148       6.56694605        3       0.00000000       0.03202961      -0.01864676       0.04497560
Rh       4.02656331       2.32473741       6.56696437        3       0.00000000      -0.03136260      -0.01810721       0.04509689
Rh       6.64947822       2.30688464       6.52084934        3       0.00000000       0.00007594      -0.00250847      -0.03451506
Rh       2.65992714       4.63264909       6.50602573        3       0.00000000      -0.00045414      -0.00888236      -0.01966990
Rh       5.32255981       4.60517474       6.52084934        3       0.00000000      -0.00213443       0.00132000      -0.03451506
Rh       7.97652655       4.60524975       6.52088849        3       0.00000000       0.00156324       0.00090254      -0.03473017
O        2.65969340       1.53557470       7.77688850        0       0.00000000       0.00070202       0.00040531       0.09800116
