37
Lattice="7.979282652125478 4.014786654423154e-15 4.603398524423124e-16 3.9896413260627424 6.910261480717139 4.2885637721088913e-16 0.0 0.0 21.55037188511455" Properties=species:S:1:pos:R:3:tags:I:1:initial_magmoms:R:1:forces:R:3 stress="-0.0001537376044620925 3.4394834305524336e-07 1.7710884115562684e-06 3.4394834305524336e-07 -0.00015413476179829133 1.0225383710648147e-06 1.7710884115562684e-06 1.0225383710648147e-06 -0.0001230448513446867" energy=-271.7244208179028 pbc="T T T"
Rh      -0.00000000       0.00000000       0.00000000        0       0.00000000       0.00506963       0.00292695      -0.00639306
Rh       2.65976088       0.00000000       0.00000000        0       0.00000000      -0.00505393       0.00292445      -0.00639160
Rh       5.31952177       0.00000000       0.00000000        0       0.00000000       0.00000603       0.00490902       0.01342709
Rh       1.32988044       2.30342049       0.00000000        0       0.00000000       0.00000568      -0.00583906      -0.00639160
Rh       3.98964133       2.30342049       0.00000000        0       0.00000000      -0.00236067      -0.00136294      -0.00077809
Rh       6.64940221       2.30342049       0.00000000        0       0.00000000       0.00237495      -0.00136557      -0.00077079
Rh       2.65976088       4.60684099       0.00000000        0       0.00000000       0.00425435      -0.00244929       0.01342709
Rh       5.31952177       4.60684099       0.00000000        0       0.00000000       0.00000485       0.00273955      -0.00077079
Rh       7.97928265       4.60684099       0.00000000        0       0.00000000      -0.00424666      -0.00245181       0.01343062
Rh       1.32988044       0.76780683       2.16825338        1       0.00000000       0.00007219       0.00004168      -0.05172711
Rh       3.98964133       0.76780683       2.16825338        1       0.00000000      -0.01897698      -0.01867678       0.00686770
Rh       6.64940221       0.76780683       2.16825338        1       0.00000000       0.01918608      -0.01867380       0.00686533
Rh       2.65976088       3.07122732       2.16825338        1       0.00000000      -0.02566305      -0.00709616       0.00686770
Rh       5.31952177       3.07122732       2.16825338        1       0.00000000       0.00010881       0.00006282      -0.11207853
Rh       7.97928265       3.07122732       2.16825338        1       0.00000000       0.02584918      -0.00712259       0.00688063
Rh       3.98964133       5.37464782       2.16825338        1       0.00000000      -0.00657895       0.02595253       0.00686533
Rh       6.64940221       5.37464782       2.16825338        1       0.00000000       0.00675625       0.02594734       0.00688063
Rh       9.30916309       5.37464782       2.16825338        1       0.00000000       0.00007125       0.00004114       0.08737385
Rh       0.00289411       1.53399349       4.34690879        2       0.00000000       0.00047390      -0.00037254      -0.00536189
Rh       2.65695730       1.53399501       4.34689382        2       0.00000000      -0.00058078      -0.00033531      -0.00522580
Rh       5.31957081       1.53227928       4.33759419        2       0.00000000      -0.00005564       0.00567015       0.00587892
Rh       1.32992857       3.82890520       4.37209585        2       0.00000000      -0.00007494      -0.01036399      -0.01380457
Rh       3.98677819       3.84074382       4.33759419        2       0.00000000       0.00488267      -0.00288326       0.00587892
Rh       6.65236423       3.84074428       4.33759771        2       0.00000000      -0.00500181      -0.00288779       0.00584187
Rh       2.66859568       6.14755542       4.37208799        2       0.00000000       0.00881303       0.00508821      -0.01377266
Rh       5.31956571       6.14577111       4.34690879        2       0.00000000      -0.00008568       0.00059668      -0.00536189
Rh       7.97053479       6.14756081       4.37209585        2       0.00000000      -0.00901295       0.00511709      -0.01380457
Rh      -0.03587502      -0.02071245       6.57287486        3       0.00000000       0.02865135       0.01654187       0.02673183
Rh       2.69567469      -0.02065697       6.57287015        3       0.00000000      -0.02835668       0.01621159       0.02689346
Rh       5.31956518       0.00677596       6.52922638        3       0.00000000       0.00000075      -0.00450340      -0.04004089
Rh       1.32994789       2.34485125       6.57287015        3       0.00000000      -0.00013870      -0.03266340       0.02689346
Rh       4.01514993       2.31814789       6.49417873        3       0.00000000      -0.00649692      -0.00375100       0.00316000
Rh       6.62403320       2.31815608       6.49418725        3       0.00000000       0.00623905      -0.00380506       0.00310357
Rh       2.66565075       4.60349060       6.52922638        3       0.00000000      -0.00389968       0.00225234      -0.04004089
Rh       5.31959865       4.57750299       6.49418725        3       0.00000000      -0.00017575       0.00730571       0.00310357
Rh       7.97353612       4.60352323       6.52921139        3       0.00000000       0.00360270       0.00208002      -0.03992782
O        1.32985359       0.76779133       7.79891782        0       0.00000000       0.00033709       0.00019462       0.08627100
