39
Lattice="8.530808755166998 -2.5386237190646034e-15 -3.9793378221843725e-15 4.2654043775835015 7.387897096801325 -2.397330953518344e-16 0.0 0.0 22.28977243571786" Properties=species:S:1:pos:R:3:tags:I:1:initial_magmoms:R:1:forces:R:3 stress="0.0033635555794638648 -4.9180592813786375e-05 0.00012269614132827614 -4.9180592813786375e-05 0.003086972214923102 0.00018345143273777753 0.00012269614132827614 0.00018345143273777753 -0.002442073029137435" energy=-142.25849994151295 pbc="T T T"
Au       0.00000000       0.00000000       0.00000000        0       0.00000000      -0.00090931      -0.00056511      -0.15532183
Au       2.84360292       0.00000000       0.00000000        0       0.00000000       0.00088883      -0.00060746      -0.15625875
Au       5.68720584       0.00000000       0.00000000        0       0.00000000       0.00001274      -0.00321990      -0.15871163
Au       1.42180146       2.46263237       0.00000000        0       0.00000000      -0.00005924       0.00136948      -0.16015917
Au       4.26540438       2.46263237       0.00000000        0       0.00000000      -0.00068691       0.00075352      -0.15926175
Au       7.10900730       2.46263237       0.00000000        0       0.00000000       0.00080694       0.00107259      -0.15916852
Au       2.84360292       4.92526473       0.00000000        0       0.00000000      -0.00089400       0.00069352      -0.16604296
Au       5.68720584       4.92526473       0.00000000        0       0.00000000       0.00031744      -0.00103660      -0.16036648
Au       8.53080876       4.92526473       0.00000000        0       0.00000000       0.00052285       0.00045986      -0.16719646
Au       1.42180146       0.82087746       2.43012302        1       0.00000000      -0.00430770      -0.01163563       0.19582225
Au       4.26540438       0.82087746       2.43012302        1       0.00000000      -0.02455015      -0.01898023       0.15166210
Au       7.10900730       0.82087746       2.43012302        1       0.00000000       0.02888261      -0.02518925       0.16397521
Au       2.84360292       3.28350982       2.43012302        1       0.00000000       0.00874104      -0.03519507       0.12028616
Au       5.68720584       3.28350982       2.43012302        1       0.00000000       0.00167881       0.00495088       0.11372204
Au       8.53080876       3.28350982       2.43012302        1       0.00000000      -0.01088884      -0.03837544       0.12387040
Au       4.26540438       5.74614219       2.43012302        1       0.00000000       0.00415996       0.04157899       0.17333428
Au       7.10900730       5.74614219       2.43012302        1       0.00000000      -0.01102270       0.03400593       0.16634500
Au       9.95261021       5.74614219       2.43012302        1       0.00000000       0.00648022       0.05643154       0.16432827
Au       0.00158925       1.63604851       4.86781754        2       0.00000000       0.00351351       0.01472510      -0.00843546
Au       2.84170233       1.63734581       4.86452769        2       0.00000000      -0.00250152       0.01447307      -0.01970316
Au       5.68795990       1.64084275       4.83750503        2       0.00000000      -0.00021519       0.00463622       0.01443868
Au       1.42142565       4.12235901       4.81982542        2       0.00000000       0.00112332      -0.01787018       0.04767248
Au       4.26320800       4.10716387       4.84005170        2       0.00000000      -0.00471889       0.00715073       0.01610224
Au       7.11090101       4.10567004       4.84149006        2       0.00000000       0.00688211       0.00767447       0.01944155
Au       2.85390718       6.57625594       4.87170377        2       0.00000000       0.00610693       0.01121734       0.01652417
Au       5.68610456       6.57169503       4.87673144        2       0.00000000       0.00092129      -0.00078692       0.00410295
Au       8.52254424       6.57451460       4.86307121        2       0.00000000      -0.00288424       0.01062033       0.01732421
Au      -0.02520712       0.00024275       7.38250745        3       0.00000000      -0.05592549      -0.01999271      -0.03307817
Au       2.88461316      -0.00569535       7.35781409        3       0.00000000       0.04501878       0.00008058      -0.03210859
Au       5.69035356       0.00895732       7.32231555        3       0.00000000       0.00159327       0.01846429       0.00169539
Au       1.42485830       2.55260710       7.25791968        3       0.00000000       0.00932523      -0.04052337       0.06126663
Au       4.27102605       2.47166285       7.31124230        3       0.00000000       0.01062728       0.03154761       0.00206023
Au       7.10909308       2.46887576       7.31819655        3       0.00000000      -0.00034701       0.03520023      -0.00039465
Au       2.85857415       4.94722054       7.32862806        3       0.00000000      -0.04297028      -0.03406842      -0.01026419
Au       5.68861854       4.92095599       7.31799144        3       0.00000000       0.00631086       0.00898140      -0.00199604
Au       8.51878683       4.94365923       7.33071353        3       0.00000000       0.05161262      -0.02986167      -0.01403869
O        1.41204132       0.64545008       9.19823523        0       0.00000000       0.03191734       0.01316378      -0.00498761
O        1.39430714       0.14789376      10.52592130        0       0.00000000      -0.02681155      -0.07326946       0.04714264
H        2.35091349       0.01679191      10.70853583        0       0.00000000      -0.03775095       0.03192594      -0.05362279
