21
Lattice="27.84 0.0 0.0 0.0 27.84 0.0 0.0 0.0 27.84" Properties=species:S:1:pos:R:3:initial_magmoms:R:1:forces:R:3 stress="6.480479213317254e-06 9.326417336463986e-06 9.326417336461767e-06 9.326417336463986e-06 6.480479213320263e-06 9.326417336461001e-06 9.326417336461767e-06 9.326417336461001e-06 6.48047921331964e-06" energy=-101.35571791990284 pbc="T T T"
Pt      12.09201547      12.09201547      14.06730501       0.00000000       0.00234211       0.00234211      -0.00231979
Pt      12.09201547      14.06730501      12.09201547       0.00000000       0.00234211      -0.00231979       0.00234211
Pt      10.33962277      14.04685350      14.04685350       0.00000000      -0.00225328      -0.01410317      -0.01410317
Pt      12.09943586      13.99569774      15.94125294       0.00000000      -0.01717047       0.01065016       0.00889436
Pt      12.09943586      15.94125294      13.99569774       0.00000000      -0.01717047       0.00889436       0.01065016
Pt      14.06730501      12.09201547      12.09201547       0.00000000      -0.00231979       0.00234211       0.00234211
Pt      14.04685350      10.33962277      14.04685350       0.00000000      -0.01410317      -0.00225328      -0.01410317
Pt      13.99569774      12.09943586      15.94125294       0.00000000       0.01065016      -0.01717047       0.00889436
Pt      15.94125294      12.09943586      13.99569774       0.00000000       0.00889436      -0.01717047       0.01065016
Pt      14.04685350      14.04685350      10.33962277       0.00000000      -0.01410317      -0.01410317      -0.00225328
Pt      13.99569774      15.94125294      12.09943586       0.00000000       0.01065016       0.00889436      -0.01717047
Pt      15.94125294      13.99569774      12.09943586       0.00000000       0.00889436       0.01065016      -0.01717047
Pt      14.02597039      14.02597039      14.02597039       0.00000000       0.00390178       0.00390178       0.00390178
Pt      14.00450562      15.93719194      15.93719194       0.00000000      -0.00592700       0.00597521       0.00597521
Pt      15.93719194      14.00450562      15.93719194       0.00000000       0.00597521      -0.00592700       0.00597521
Pt      15.93719194      15.93719194      14.00450562       0.00000000       0.00597521       0.00597521      -0.00592700
Pt      14.01958270      14.01958270      17.69642522       0.00000000      -0.01200477      -0.01200477      -0.02775368
Pt      14.01958270      17.69642522      14.01958270       0.00000000      -0.01200477      -0.02775368      -0.01200477
Pt      17.69642522      14.01958270      14.01958270       0.00000000      -0.02775368      -0.01200477      -0.01200477
O       11.80585761      11.80585761      11.80585761       0.00000000       0.03967257       0.03967257       0.03967257
H       11.23787515      11.23787515      11.23787515       0.00000000       0.02551256       0.02551256       0.02551256
