21
Lattice="27.84 0.0 0.0 0.0 27.84 0.0 0.0 0.0 27.84" Properties=species:S:1:pos:R:3:initial_magmoms:R:1:forces:R:3 stress="-4.587952297084276e-06 -2.5625671385617057e-05 -1.605246807527593e-19 -2.5625671385617057e-05 -4.587952297080021e-06 -2.6234343036899006e-18 -1.605246807527593e-19 -2.6234343036899006e-18 1.4895069589867003e-05" energy=-101.19405835306888 pbc="T T T"
Pt      11.96196927      11.96196927      13.92000000       0.00000000       0.01806452       0.01806452      -0.00000000
Pt      11.98756586      13.94393243      11.98642004       0.00000000       0.00474095      -0.06226535       0.02865019
Pt      10.24793950      14.01057771      13.92000000       0.00000000       0.02404549      -0.03473610      -0.00000000
Pt      11.98756586      13.94393243      15.85357996       0.00000000       0.00474095      -0.06226535      -0.02865019
Pt      12.01119142      15.86367598      13.92000000       0.00000000       0.03092972       0.03916103       0.00000000
Pt      13.94393243      11.98756586      11.98642004       0.00000000      -0.06226535       0.00474095       0.02865019
Pt      14.01057771      10.24793950      13.92000000       0.00000000      -0.03473610       0.02404549      -0.00000000
Pt      13.94393243      11.98756586      15.85357996       0.00000000      -0.06226535       0.00474095      -0.02865019
Pt      15.86367598      12.01119142      13.92000000       0.00000000       0.03916103       0.03092972      -0.00000000
Pt      13.91421287      13.91421287      10.25035945       0.00000000      -0.01116169      -0.01116169       0.01005013
Pt      13.92206834      15.83087157      12.01340657       0.00000000      -0.01956691      -0.00729184       0.00341295
Pt      15.83087157      13.92206834      12.01340657       0.00000000      -0.00729184      -0.01956691       0.00341295
Pt      13.85514014      13.85514014      13.92000000       0.00000000       0.05873427       0.05873427      -0.00000000
Pt      13.92206834      15.83087157      15.82659343       0.00000000      -0.01956691      -0.00729184      -0.00341295
Pt      15.83087157      13.92206834      15.82659343       0.00000000      -0.00729184      -0.01956691      -0.00341295
Pt      15.82357907      15.82357907      13.92000000       0.00000000      -0.01681431      -0.01681431      -0.00000000
Pt      13.91421287      13.91421287      17.58964055       0.00000000      -0.01116169      -0.01116169      -0.01005013
Pt      13.92056673      17.60492101      13.92000000       0.00000000       0.05865131       0.04531425      -0.00000000
Pt      17.60492101      13.92056673      13.92000000       0.00000000       0.04531425       0.05865131      -0.00000000
O       10.57818556      10.57818556      13.92000000       0.00000000      -0.00500745      -0.00500745       0.00000000
H        9.88533274       9.88533274      13.92000000       0.00000000      -0.02725305      -0.02725305      -0.00000000
