21
Lattice="27.84 0.0 0.0 0.0 27.84 0.0 0.0 0.0 27.84" Properties=species:S:1:pos:R:3:initial_magmoms:R:1:forces:R:3 stress="-2.8396602195876136e-05 -3.16005003749332e-17 -1.8363029955059822e-05 -3.16005003749332e-17 1.1036750166644265e-05 -3.7319500217151855e-17 -1.8363029955059822e-05 -3.7319500217151855e-17 -2.8396602195864616e-05" energy=-101.19325991405306 pbc="T T T"
Pt      12.07431223      11.99269530      14.02695162       0.00000000       0.00804840       0.00545946      -0.00475017
Pt      12.06972240      13.92000000      12.06972240       0.00000000      -0.04571815       0.00000000      -0.04571815
Pt      10.33645970      13.92000000      14.11118466       0.00000000      -0.00537690       0.00000000      -0.00490631
Pt      12.11287281      13.92000000      15.95808019       0.00000000      -0.00957587       0.00000000       0.02591646
Pt      12.07431223      15.84730470      14.02695162       0.00000000       0.00804840      -0.00545946      -0.00475017
Pt      14.02695162      11.99269530      12.07431223       0.00000000      -0.00475017       0.00545946       0.00804840
Pt      13.98383316      10.24468791      13.98383316       0.00000000       0.02801031       0.02064902       0.02801031
Pt      14.00684033      12.00050402      15.91647731       0.00000000       0.00664251       0.00576366       0.01156095
Pt      15.91647731      12.00050402      14.00684033       0.00000000       0.01156095       0.00576366       0.00664251
Pt      14.11118466      13.92000000      10.33645970       0.00000000      -0.00490631       0.00000000      -0.00537690
Pt      14.02695162      15.84730470      12.07431223       0.00000000      -0.00475017      -0.00545946       0.00804840
Pt      15.95808019      13.92000000      12.11287281       0.00000000       0.02591646      -0.00000000      -0.00957587
Pt      13.96146178      13.92000000      13.96146178       0.00000000      -0.03173111       0.00000000      -0.03173111
Pt      14.00684033      15.83949598      15.91647731       0.00000000       0.00664251      -0.00576366       0.01156095
Pt      15.90761961      13.92000000      15.90761961       0.00000000       0.01047526      -0.00000000       0.01047526
Pt      15.91647731      15.83949598      14.00684033       0.00000000       0.01156095      -0.00576366       0.00664251
Pt      14.02989048      13.92000000      17.69060601       0.00000000       0.00421331       0.00000000       0.03411966
Pt      13.98383316      17.59531209      13.98383316       0.00000000       0.02801031      -0.02064902       0.02801031
Pt      17.69060601      13.92000000      14.02989048       0.00000000       0.03411966      -0.00000000       0.00421331
O       10.68785966      13.92000000      10.68785966       0.00000000      -0.04199319      -0.00000000      -0.04199319
H        9.99496475      13.92000000       9.99496475       0.00000000      -0.03444716       0.00000000      -0.03444716
