37
Lattice="8.51545404474967 -5.95020126642259e-16 6.045666078066302e-16 4.2577270223748345 7.374599527512166 1.4060493190009737e-15 0.0 0.0 22.098036274269273" Properties=species:S:1:pos:R:3:tags:I:1:initial_magmoms:R:1:forces:R:3 stress="-0.0019269793436776667 -9.054824403560603e-06 1.6375132922620266e-05 -9.054824403560603e-06 -0.0019165237330638994 9.454187400870868e-06 1.6375132922620266e-05 9.454187400870868e-06 -0.0009729957175363541" energy=-112.9296203029549 pbc="T T T"
Ag      -0.00000000      -0.00000000       0.00000000        0       0.00000000       0.00079474       0.00045884      -0.11965629
Ag       2.83848468      -0.00000000       0.00000000        0       0.00000000      -0.00000580       0.00102256      -0.11431509
Ag       5.67696936      -0.00000000       0.00000000        0       0.00000000      -0.00079841       0.00045690      -0.11968092
Ag       1.41924234       2.45819984       0.00000000        0       0.00000000       0.00088266      -0.00051630      -0.11431509
Ag       4.25772702       2.45819984       0.00000000        0       0.00000000      -0.00088603      -0.00051155      -0.11432182
Ag       7.09621170       2.45819984       0.00000000        0       0.00000000       0.00000200      -0.00110272      -0.11902307
Ag       2.83848468       4.91639969       0.00000000        0       0.00000000      -0.00000352      -0.00091990      -0.11968092
Ag       5.67696936       4.91639969       0.00000000        0       0.00000000      -0.00095398       0.00055309      -0.11902307
Ag       8.51545404       4.91639969       0.00000000        0       0.00000000       0.00095804       0.00055313      -0.11894596
Ag       1.41924234       0.81939995       2.36351683        1       0.00000000       0.00136269       0.00078675       0.15953945
Ag       4.25772702       0.81939995       2.36351683        1       0.00000000      -0.00125908       0.00038289       0.15989456
Ag       7.09621170       0.81939995       2.36351683        1       0.00000000       0.00051642       0.01863422       0.15535408
Ag       2.83848468       3.27759979       2.36351683        1       0.00000000      -0.00029794      -0.00128184       0.15989456
Ag       5.67696936       3.27759979       2.36351683        1       0.00000000      -0.02277500      -0.01314915       0.11641905
Ag       8.51545404       3.27759979       2.36351683        1       0.00000000       0.02306035      -0.01312711       0.11734966
Ag       4.25772702       5.73579963       2.36351683        1       0.00000000       0.01639592      -0.00886988       0.15535408
Ag       7.09621170       5.73579963       2.36351683        1       0.00000000       0.00016176       0.02653441       0.11734966
Ag       9.93469639       5.73579963       2.36351683        1       0.00000000      -0.01646265      -0.00950471       0.15613629
Ag       0.01089076       1.64304439       4.75052846        2       0.00000000       0.00015993      -0.00067033      -0.01297195
Ag       2.83868362       1.63891475       4.76274239        2       0.00000000       0.00105360       0.00060830       0.02765832
Ag       5.66696524       1.64285092       4.75015856        2       0.00000000       0.00112092       0.00054359      -0.01194599
Ag       1.42087266       4.08575761       4.75074190        2       0.00000000       0.00035493       0.00100804      -0.01244119
Ag       4.25623325       4.08631040       4.75015856        2       0.00000000       0.00103122       0.00069895      -0.01194599
Ag       7.09620473       4.09699571       4.71160663        2       0.00000000       0.00023902       0.00013800      -0.00754729
Ag       2.83841376       6.55515863       4.72324122        2       0.00000000       0.00006463       0.00003732       0.00043484
Ag       5.68609058       6.56250901       4.75052846        2       0.00000000      -0.00050056       0.00047367      -0.01297195
Ag       8.50653323       6.56223254       4.75074190        2       0.00000000       0.00105045      -0.00019665      -0.01244119
Ag      -0.01045532      -0.00603638       7.12116941        3       0.00000000      -0.00186807      -0.00107853       0.00927999
Ag       2.83912490      -0.07020836       7.24431869        3       0.00000000       0.00075047      -0.07122853      -0.05712373
Ag       5.68728895      -0.00578071       7.12176176        3       0.00000000       0.00595165      -0.00033368       0.00821260
Ag       1.35876022       2.49385847       7.24431869        3       0.00000000      -0.06131048       0.03626419      -0.05712373
Ag       4.32447617       2.49673748       7.23983265        3       0.00000000       0.05861238       0.03383987      -0.05670668
Ag       7.09933419       2.46522210       7.10058686        3       0.00000000      -0.00492845       0.00298999      -0.00152050
Ag       2.83863823       4.92822706       7.12176176        3       0.00000000       0.00268685       0.00532112       0.00821260
Ag       5.68461206       4.91559271       7.10058686        3       0.00000000       0.00012518      -0.00576316      -0.00152050
Ag       8.51011730       4.91331852       7.10091829        3       0.00000000       0.00056415       0.00032571      -0.00061752
O        2.84583372       1.64304286       8.52361925        0       0.00000000      -0.00584998      -0.00337749      -0.03524933
