37
Lattice="8.51545404474967 -5.95020126642259e-16 6.045666078066302e-16 4.2577270223748345 7.374599527512166 1.4060493190009737e-15 0.0 0.0 22.098036274269273" Properties=species:S:1:pos:R:3:tags:I:1:initial_magmoms:R:1:forces:R:3 stress="-0.0028608335040944156 2.4404179908411916e-06 5.673709216683867e-06 2.4404179908411916e-06 -0.002273725055752303 -0.00036083284802977407 5.673709216683867e-06 -0.00036083284802977407 -0.001744578871596127" energy=-112.97568876046944 pbc="T T T"
Ag      -0.00000000      -0.00000000       0.00000000        0       0.00000000       0.00071598       0.00036166      -0.11539875
Ag       2.83848468      -0.00000000       0.00000000        0       0.00000000      -0.00071863       0.00036331      -0.11540677
Ag       5.67696936      -0.00000000       0.00000000        0       0.00000000       0.00000135       0.00004770      -0.12079256
Ag       1.41924234       2.45819984       0.00000000        0       0.00000000       0.00000009      -0.00052859      -0.11549665
Ag       4.25772702       2.45819984       0.00000000        0       0.00000000      -0.00080003      -0.00060701      -0.11635103
Ag       7.09621170       2.45819984       0.00000000        0       0.00000000       0.00079600      -0.00060340      -0.11635040
Ag       2.83848468       4.91639969       0.00000000        0       0.00000000      -0.00039047      -0.00005247      -0.12021632
Ag       5.67696936       4.91639969       0.00000000        0       0.00000000       0.00000257       0.00131244      -0.11634072
Ag       8.51545404       4.91639969       0.00000000        0       0.00000000       0.00038636      -0.00005599      -0.12022103
Ag       1.41924234       0.81939995       2.36351683        1       0.00000000       0.00020662      -0.01800587       0.13988441
Ag       4.25772702       0.81939995       2.36351683        1       0.00000000      -0.00886808      -0.01469099       0.10979399
Ag       7.09621170       0.81939995       2.36351683        1       0.00000000       0.00949945      -0.01487649       0.10990742
Ag       2.83848468       3.27759979       2.36351683        1       0.00000000      -0.01484560      -0.01363057       0.11218904
Ag       5.67696936       3.27759979       2.36351683        1       0.00000000       0.00031776      -0.01751907       0.08181116
Ag       8.51545404       3.27759979       2.36351683        1       0.00000000       0.01536887      -0.01364928       0.11222590
Ag       4.25772702       5.73579963       2.36351683        1       0.00000000       0.00200842      -0.00533450       0.11067612
Ag       7.09621170       5.73579963       2.36351683        1       0.00000000      -0.00180502      -0.00542673       0.11044129
Ag       9.93469639       5.73579963       2.36351683        1       0.00000000       0.00029267      -0.01640853       0.17420111
Ag       0.00767919       1.61344621       4.74463789        2       0.00000000      -0.01381417      -0.00507451       0.00144552
Ag       2.83171384       1.61340473       4.74460162        2       0.00000000       0.01375777      -0.00459988       0.00178715
Ag       5.67748885       1.61101959       4.72461727        2       0.00000000      -0.00048690       0.01204871       0.00269079
Ag       1.41973405       4.06276249       4.74503068        2       0.00000000      -0.00021757      -0.02068081      -0.03354285
Ag       4.25854321       4.06793024       4.72201646        2       0.00000000       0.00125508       0.02036073       0.00541407
Ag       7.09633338       4.06797283       4.72204852        2       0.00000000      -0.00156946       0.02023240       0.00534230
Ag       2.84990554       6.53716591       4.73668225        2       0.00000000      -0.00249824      -0.00773915       0.01651439
Ag       5.67731572       6.52879776       4.74813316        2       0.00000000      -0.00028826       0.03014199      -0.01644588
Ag       8.50467457       6.53718407       4.73649332        2       0.00000000       0.00352055      -0.00768264       0.01749210
Ag      -0.08300889      -0.08454154       7.18586389        3       0.00000000      -0.03446887      -0.05313906      -0.00764100
Ag       2.92270039      -0.08463172       7.18548548        3       0.00000000       0.03513785      -0.05169557      -0.00636062
Ag       5.67784635      -0.04414818       7.10227559        3       0.00000000      -0.00178084      -0.01042761      -0.01593154
Ag       1.42007007       2.48235818       7.20842798        3       0.00000000       0.00022586       0.09710212      -0.02032192
Ag       4.27005932       2.42559560       7.11649407        3       0.00000000       0.00246289      -0.01037964      -0.00296818
Ag       7.08575094       2.42556759       7.11650415        3       0.00000000      -0.00372610      -0.00958058      -0.00282771
Ag       2.83213178       4.86354032       7.09523016        3       0.00000000       0.02111080       0.04500384       0.01342148
Ag       5.67780613       4.86600919       7.11570793        3       0.00000000      -0.00029134       0.01275275       0.00286387
Ag       8.52351758       4.86361061       7.09518506        3       0.00000000      -0.02163349       0.04527405       0.01344972
O        1.41982073       0.74199111       8.44418338        0       0.00000000       0.00113610       0.01738726       0.02106211
