37
Lattice="8.51545404474967 -5.95020126642259e-16 6.045666078066302e-16 4.2577270223748345 7.374599527512166 1.4060493190009737e-15 0.0 0.0 22.098036274269273" Properties=species:S:1:pos:R:3:tags:I:1:initial_magmoms:R:1:forces:R:3 stress="-0.0020924873880815084 9.605758155815874e-06 7.773363624182866e-06 9.605758155815874e-06 -0.002103579162195581 4.48795358090693e-06 7.773363624182866e-06 4.48795358090693e-06 -0.0008797786100731616" energy=-112.97214368202492 pbc="T T T"
Ag      -0.00000000      -0.00000000       0.00000000        0       0.00000000       0.00069372       0.00040052      -0.11564718
Ag       2.83848468      -0.00000000       0.00000000        0       0.00000000      -0.00069617       0.00040225      -0.11563774
Ag       5.67696936      -0.00000000       0.00000000        0       0.00000000       0.00000562      -0.00009485      -0.12031425
Ag       1.41924234       2.45819984       0.00000000        0       0.00000000       0.00000028      -0.00080402      -0.11563774
Ag       4.25772702       2.45819984       0.00000000        0       0.00000000      -0.00092074      -0.00053159      -0.11727434
Ag       7.09621170       2.45819984       0.00000000        0       0.00000000       0.00091996      -0.00053733      -0.11726584
Ag       2.83848468       4.91639969       0.00000000        0       0.00000000      -0.00007934       0.00005229      -0.12031425
Ag       5.67696936       4.91639969       0.00000000        0       0.00000000      -0.00000536       0.00106537      -0.11726584
Ag       8.51545404       4.91639969       0.00000000        0       0.00000000       0.00007830       0.00004521      -0.12034450
Ag       1.41924234       0.81939995       2.36351683        1       0.00000000      -0.00012107      -0.00006990       0.16513117
Ag       4.25772702       0.81939995       2.36351683        1       0.00000000      -0.01359169      -0.01174428       0.13904433
Ag       7.09621170       0.81939995       2.36351683        1       0.00000000       0.01362484      -0.01174715       0.13938428
Ag       2.83848468       3.27759979       2.36351683        1       0.00000000      -0.01696669      -0.00589861       0.13904433
Ag       5.67696936       3.27759979       2.36351683        1       0.00000000      -0.00008530      -0.00004925       0.09220141
Ag       8.51545404       3.27759979       2.36351683        1       0.00000000       0.01710994      -0.00601033       0.13921806
Ag       4.25772702       5.73579963       2.36351683        1       0.00000000      -0.00336091       0.01767303       0.13938428
Ag       7.09621170       5.73579963       2.36351683        1       0.00000000       0.00334987       0.01782281       0.13921806
Ag       9.93469639       5.73579963       2.36351683        1       0.00000000       0.00023168       0.00013376       0.22457319
Ag       0.00642780       1.63507150       4.75597112        2       0.00000000      -0.00157016       0.00163269       0.00367282
Ag       2.83205708       1.63508891       4.75584350        2       0.00000000       0.00192557       0.00111173       0.00331849
Ag       5.67691349       1.63843592       4.72512939        2       0.00000000       0.00003638      -0.00045530      -0.00543067
Ag       1.41933787       4.08165599       4.75378068        2       0.00000000       0.00039987       0.00201992      -0.01426305
Ag       4.25738387       4.09713334       4.72512939        2       0.00000000      -0.00037611       0.00025916      -0.00543067
Ag       7.09652402       4.09718005       4.72497303        2       0.00000000       0.00080090       0.00046240      -0.00516158
Ag       2.85222336       6.56313161       4.75397037        2       0.00000000      -0.00131410      -0.00075870      -0.01503554
Ag       5.67695438       6.56263041       4.75597112        2       0.00000000       0.00062887      -0.00217614       0.00367282
Ag       8.50221373       6.56295419       4.75378068        2       0.00000000       0.00194923      -0.00066366      -0.01426305
Ag      -0.06797220      -0.03924377       7.24653702        3       0.00000000      -0.06409964      -0.03700794      -0.06037323
Ag       2.90965602      -0.04061238       7.24435223        3       0.00000000       0.06260216      -0.03566786      -0.06003355
Ag       5.67857973      -0.00109012       7.10578368        3       0.00000000      -0.00261029      -0.00188721       0.00290958
Ag       1.41965665       2.54014222       7.24435223        3       0.00000000       0.00041181       0.07204899      -0.06003355
Ag       4.26613715       2.46305543       7.11611902        3       0.00000000       0.00749653       0.00432813       0.00544142
Ag       7.08783056       2.46317461       7.11581561        3       0.00000000      -0.00544120       0.00457394       0.00592965
Ag       2.83834579       4.91833936       7.10578368        3       0.00000000      -0.00293951      -0.00131697       0.00290958
Ag       5.67708707       4.90665402       7.11581561        3       0.00000000       0.00124054      -0.00699919       0.00592965
Ag       8.51673203       4.91713753       7.10559000        3       0.00000000       0.00338721       0.00195561       0.00260603
O        1.42283592       0.82147470       8.50866397        0       0.00000000      -0.00271502      -0.00156752      -0.05386259
