37
Lattice="8.51545404474967 -5.95020126642259e-16 6.045666078066302e-16 4.2577270223748345 7.374599527512166 1.4060493190009737e-15 0.0 0.0 22.098036274269273" Properties=species:S:1:pos:R:3:tags:I:1:initial_magmoms:R:1:forces:R:3 stress="-0.0005177720289968792 -3.5870473757202126e-17 8.110529290180017e-18 -3.5870473757202126e-17 -0.0005177720289967838 -6.357732449733161e-17 8.110529290180017e-18 -6.357732449733161e-17 -0.001651192425716895" energy=-111.83403034975814 pbc="T T T"
Ag      -0.00000000      -0.00000000       0.00000000        0       0.00000000      -0.00000000      -0.00000000      -0.11911107
Ag       2.83848468      -0.00000000       0.00000000        0       0.00000000      -0.00025477      -0.00027326      -0.11780240
Ag       5.67696936      -0.00000000       0.00000000        0       0.00000000       0.00025477      -0.00027326      -0.11780240
Ag       1.41924234       2.45819984       0.00000000        0       0.00000000      -0.00036403      -0.00008400      -0.11780240
Ag       4.25772702       2.45819984       0.00000000        0       0.00000000      -0.00000000       0.00000000      -0.11464318
Ag       7.09621170       2.45819984       0.00000000        0       0.00000000       0.00036403      -0.00008400      -0.11780240
Ag       2.83848468       4.91639969       0.00000000        0       0.00000000      -0.00010926       0.00035726      -0.11780240
Ag       5.67696936       4.91639969       0.00000000        0       0.00000000       0.00010926       0.00035726      -0.11780240
Ag       8.51545404       4.91639969       0.00000000        0       0.00000000      -0.00000000       0.00000000      -0.11480345
Ag       1.41924234       0.81939995       2.36351683        1       0.00000000       0.01984115       0.01145529       0.08412987
Ag       4.25772702       0.81939995       2.36351683        1       0.00000000      -0.00000000       0.00148473       0.15095397
Ag       7.09621170       0.81939995       2.36351683        1       0.00000000      -0.01984115       0.01145529       0.08412987
Ag       2.83848468       3.27759979       2.36351683        1       0.00000000       0.00128582      -0.00074237       0.15095397
Ag       5.67696936       3.27759979       2.36351683        1       0.00000000      -0.00128582      -0.00074237       0.15095397
Ag       8.51545404       3.27759979       2.36351683        1       0.00000000      -0.00000000       0.03229766       0.11146419
Ag       4.25772702       5.73579963       2.36351683        1       0.00000000      -0.00000000      -0.02291058       0.08412987
Ag       7.09621170       5.73579963       2.36351683        1       0.00000000       0.02797059      -0.01614883       0.11146419
Ag       9.93469639       5.73579963       2.36351683        1       0.00000000      -0.02797059      -0.01614883       0.11146419
Ag      -0.00000000       1.65414900       4.71709265        2       0.00000000      -0.00000000       0.00201691      -0.03960618
Ag       2.83408426       1.63625931       4.74422074        2       0.00000000      -0.00141630      -0.00081770       0.02833897
Ag       5.68136979       1.63625931       4.74422074        2       0.00000000       0.00141630      -0.00081770       0.02833897
Ag       1.42332657       4.09464171       4.74545549        2       0.00000000       0.00343139      -0.00198112       0.03334759
Ag       4.25772702       4.10208091       4.74422074        2       0.00000000       0.00000000       0.00163541       0.02833897
Ag       7.09212748       4.09464171       4.74545549        2       0.00000000      -0.00343139      -0.00198112       0.03334759
Ag       2.82519197       6.54752503       4.71709265        2       0.00000000      -0.00174670      -0.00100846      -0.03960618
Ag       5.69026208       6.54752503       4.71709265        2       0.00000000       0.00174670      -0.00100846      -0.03960618
Ag       8.51545404       6.55991564       4.74545549        2       0.00000000       0.00000000       0.00396223       0.03334759
Ag      -0.00000000      -0.00000000       6.95762056        3       0.00000000       0.00000000      -0.00000000      -0.05375770
Ag       2.84228306      -0.00031765       7.17584554        3       0.00000000      -0.01190976      -0.00248599      -0.00116734
Ag       5.67317099      -0.00031765       7.17584554        3       0.00000000       0.01190976      -0.00248599      -0.00116734
Ag       1.42086643       2.46164816       7.17584554        3       0.00000000      -0.00810781      -0.00907116      -0.00116734
Ag       4.25772702       2.45819984       7.11830204        3       0.00000000      -0.00000000      -0.00000000       0.01907045
Ag       7.09458761       2.46164816       7.17584554        3       0.00000000       0.00810781      -0.00907116      -0.00116734
Ag       2.83631040       4.91326902       7.17584554        3       0.00000000       0.00380195       0.01155715      -0.00116734
Ag       5.67914365       4.91326902       7.17584554        3       0.00000000      -0.00380195       0.01155715      -0.00116734
Ag       8.51545404       4.91639969       7.12018059        3       0.00000000       0.00000000       0.00000000       0.02118036
O        0.00000000       0.00000000       8.93379499        0       0.00000000       0.00000000       0.00000000      -0.03000217
