2
Lattice="15.0 0.0 0.0 0.0 15.0 0.0 0.0 0.0 15.0" Properties=species:S:1:pos:R:3:initial_magmoms:R:1:forces:R:3 stress="1.2325333740478898e-09 2.778923854750264e-26 2.778923854750264e-26 2.778923854750264e-26 1.2325333740478898e-09 0.0 2.778923854750264e-26 0.0 -2.1631807990147754e-05" energy=-6.774767560505041 pbc="T T T"
H        7.50000000       7.50000000       7.12672925       0.00000000      -0.00000000      -0.00000000      -0.09780007
H        7.50000000       7.50000000       7.87327075       0.00000000      -0.00000000      -0.00000000       0.09780007
