22
Lattice="27.84 0.0 0.0 0.0 27.84 0.0 0.0 0.0 27.84" Properties=species:S:1:pos:R:3:initial_magmoms:R:1:forces:R:3 stress="7.165664835452916e-07 1.58987922086167e-05 4.600928848386026e-06 1.58987922086167e-05 1.913068344980817e-05 9.645104503472728e-06 4.600928848386026e-06 9.645104503472728e-06 6.5970381569339026e-06" energy=-105.92917420621018 pbc="T T T"
Pt      12.03654717      11.91559073      13.93105767       0.00000000       0.02374499      -0.00057086       0.00201432
Pt      12.02339329      13.91363923      11.92373587       0.00000000       0.01106706      -0.01163214      -0.00182121
Pt      10.27838942      13.88397867      13.88907748       0.00000000       0.00420830      -0.03472124      -0.01092314
Pt      11.97205614      13.92242077      15.83796113       0.00000000       0.01387942      -0.02200798       0.00334171
Pt      11.97196594      15.83565458      13.92396787       0.00000000       0.00350430      -0.01153260      -0.02585968
Pt      13.94174866      11.98773822      11.99083713       0.00000000       0.02276039      -0.01608073      -0.00424047
Pt      13.98772173      10.21890053      13.90822630       0.00000000       0.01027156      -0.00097948      -0.00544618
Pt      13.88904368      11.99281558      15.82403555       0.00000000       0.00219321      -0.00764759      -0.01556695
Pt      15.84023680      12.01374675      13.92327167       0.00000000       0.01779020       0.00726883       0.00150164
Pt      13.97740478      13.90083461      10.22402782       0.00000000       0.00421985      -0.01770783       0.00136744
Pt      13.88544017      15.81848228      11.99290941       0.00000000      -0.01745565      -0.02702173      -0.00450803
Pt      15.83936374      13.92142335      12.01370167       0.00000000       0.01207539      -0.00228847       0.00595599
Pt      13.88500691      13.91207715      13.91279935       0.00000000       0.00364174      -0.00664554      -0.00130476
Pt      13.90307168      15.83031412      15.83029717       0.00000000      -0.02137360      -0.00078713      -0.00083251
Pt      15.82433402      13.91342173      15.83247548       0.00000000      -0.01221823       0.00656687       0.00420730
Pt      15.82389154      15.83158331      13.91217601       0.00000000      -0.01554749       0.00202529       0.00324075
Pt      13.90602222      13.90430852      17.58352823       0.00000000      -0.01692645      -0.01180623      -0.00158280
Pt      13.90604563      17.58235042      13.90225505       0.00000000      -0.02157312      -0.00943930      -0.01849715
Pt      17.59659130      13.92498216      13.92523399       0.00000000      -0.00289206       0.01554688       0.01274136
O       10.31472429      12.34547347      12.33689760       0.00000000      -0.00295685       0.05040464       0.00329552
O        9.23286804      11.60182217      11.58154404       0.00000000      -0.07027568       0.05823371       0.04077380
H        9.34723614      10.70063779      11.94454466       0.00000000       0.05186270       0.04082264       0.01214303
