22
Lattice="27.84 0.0 0.0 0.0 27.84 0.0 0.0 0.0 27.84" Properties=species:S:1:pos:R:3:initial_magmoms:R:1:forces:R:3 stress="1.6824753795591783e-06 -3.6246112571553506e-06 1.6969515980911873e-06 -3.6246112571553506e-06 2.5176435215738317e-05 1.9549501402159022e-06 1.6969515980911873e-06 1.9549501402159022e-06 -5.0782201440869955e-06" energy=-107.63498757031402 pbc="T T T"
Pt      12.15172724      11.75814084      14.43010867       0.00000000       0.01103226       0.01546888       0.03475832
Pt      12.07364209      13.76058436      12.04300901       0.00000000       0.00605769      -0.00584397       0.00597416
Pt      10.44681220      13.67669993      14.06689256       0.00000000      -0.01414728      -0.02327635      -0.00423099
Pt      12.15916411      13.90203998      16.01067316       0.00000000       0.00426093       0.02286822      -0.00515296
Pt      11.98891208      15.72376929      13.92200190       0.00000000      -0.00084200      -0.03540131      -0.03006149
Pt      14.12701538      11.94439465      12.08752387       0.00000000       0.01444994       0.00764738       0.00468637
Pt      14.30819061      10.33397078      14.14706587       0.00000000      -0.02745938      -0.00198225      -0.00075860
Pt      14.23038227      12.11711910      16.05315938       0.00000000       0.01888834      -0.00715522      -0.01861497
Pt      16.07227032      12.16511247      13.98116964       0.00000000      -0.00483330      -0.00019225      -0.02892890
Pt      14.10250305      13.97633151      10.30450292       0.00000000      -0.00020233      -0.04561545      -0.00372285
Pt      13.87930269      15.81675246      12.06897360       0.00000000       0.01332589      -0.00995818      -0.02666428
Pt      15.92929107      14.01351371      12.09492836       0.00000000       0.00846145       0.03646554      -0.01699500
Pt      13.96231641      13.86750556      14.02021364       0.00000000       0.01909893       0.02276753      -0.00234150
Pt      13.91693277      15.92571561      15.82778965       0.00000000       0.00500541      -0.01312279       0.02644531
Pt      15.97803803      14.13378928      15.86394031       0.00000000       0.00365942       0.00405333       0.02163233
Pt      15.81436916      15.98083676      13.91864680       0.00000000       0.00328187       0.01683572       0.01943410
Pt      14.13318734      14.13609760      17.69263156       0.00000000      -0.01373737      -0.03965243       0.01401696
Pt      13.77753643      17.63655888      13.89108160       0.00000000      -0.01017627      -0.03657178       0.00099821
Pt      17.72206105      14.18031489      13.94640594       0.00000000      -0.02368304       0.02142297      -0.00545973
O       12.35820249      11.99701874      11.21663504       0.00000000       0.00238115      -0.01556544       0.01470606
O       11.04663663      10.27398946      13.79758255       0.00000000       0.02359536       0.01490907      -0.04004229
H       11.43578352       9.96991873      12.94899571       0.00000000      -0.03841766       0.07189879       0.04032173
