22
Lattice="27.84 0.0 0.0 0.0 27.84 0.0 0.0 0.0 27.84" Properties=species:S:1:pos:R:3:initial_magmoms:R:1:forces:R:3 stress="2.1649924886362804e-06 -4.258447430405639e-06 6.12400754185212e-06 -4.258447430405639e-06 -1.2947466931484061e-05 -1.1138619604631698e-06 6.12400754185212e-06 -1.1138619604631698e-06 3.476543445015522e-05" energy=-106.429989019006 pbc="T T T"
Pt      12.07652975      11.98748769      13.99492256       0.00000000      -0.01257968       0.00519455       0.02404914
Pt      11.97915818      13.87475500      11.97418838       0.00000000       0.02727510      -0.01874880      -0.00844391
Pt      10.34248477      13.90729950      14.04320210       0.00000000       0.03084690       0.00147603      -0.05244042
Pt      12.08150361      13.90790366      15.96220059       0.00000000       0.00638145       0.00230453      -0.05805086
Pt      12.07476020      15.82311772      13.98435642       0.00000000      -0.00073684      -0.00983259       0.01929340
Pt      14.00365103      11.98241950      12.08736832       0.00000000       0.05420405       0.01395322      -0.02110510
Pt      14.01056725      10.25559592      14.02814989       0.00000000      -0.02262605      -0.03176336      -0.05052056
Pt      13.99906995      12.02769581      15.92452827       0.00000000      -0.01790549      -0.02268620      -0.01116156
Pt      15.92034582      12.01963395      14.01087053       0.00000000       0.01122373      -0.01154465       0.00247706
Pt      14.10218462      13.91235736      10.35840850       0.00000000      -0.01069049       0.00607553       0.02071134
Pt      14.02353068      15.84150456      12.08385842       0.00000000       0.04264602      -0.01290209      -0.01159585
Pt      15.97874917      13.91180672      12.10588268       0.00000000      -0.02694662       0.00118347       0.01106444
Pt      13.93930556      13.91144739      13.94170869       0.00000000       0.05880860      -0.00022928       0.04484283
Pt      13.98569404      15.80044520      15.91626823       0.00000000      -0.00878216       0.02585776      -0.00580544
Pt      15.91724744      13.91924519      15.91988641       0.00000000       0.00068205       0.00243181       0.02601673
Pt      15.91159595      15.81098948      14.01406679       0.00000000       0.02495324       0.02022954       0.00645959
Pt      14.02671686      13.91898715      17.70814798       0.00000000      -0.04795106      -0.00206407      -0.04235943
Pt      13.98720057      17.56667467      14.01677099       0.00000000      -0.00800592       0.02628616      -0.03934202
Pt      17.70963693      13.91934139      14.03518617       0.00000000      -0.03277019       0.00062629       0.01149138
O       11.00527950      14.43609427      10.37125183       0.00000000      -0.05472798       0.03532043       0.05010716
O        9.77590375      13.74870914      10.19809584       0.00000000       0.01317575      -0.06389431       0.01876816
H        9.89395389      12.88298815      10.64713622       0.00000000      -0.02647444       0.03272602       0.06554391
